REMARK  Name = 
REMARK  3 active torsions:
REMARK  status: ('A' for Active; 'I' for Inactive)
REMARK    1  A    between atoms: O_2  and  C_3
REMARK    2  A    between atoms: C_5  and  C_6
REMARK    3  A    between atoms: C_7  and  C_8
REMARK                            x       y       z     vdW  Elec       q    Type
REMARK                         _______ _______ _______ _____ _____    ______ ____
ROOT
ATOM      1  C   UNL     1       0.155   0.200  -0.022  0.00  0.00    +0.000 C 
ATOM      2  C   UNL     1      -0.877  -0.582   0.079  0.00  0.00    +0.000 C 
ENDROOT
BRANCH   2   3
ATOM      3  C   UNL     1      -2.268  -0.134   0.087  0.00  0.00    +0.000 A 
ATOM      4  C   UNL     1      -3.277  -1.067   0.200  0.00  0.00    +0.000 A 
ATOM      5  C   UNL     1      -4.616  -0.743   0.217  0.00  0.00    +0.000 A 
ATOM      6  O   UNL     1      -5.620  -1.703   0.332  0.00  0.00    +0.000 OA
ATOM      7  C   UNL     1      -4.940   0.594   0.116  0.00  0.00    +0.000 A 
ATOM      8  C   UNL     1      -3.981   1.574   0.001  0.00  0.00    +0.000 A 
ATOM      9  O   UNL     1      -4.354   2.909  -0.100  0.00  0.00    +0.000 OA
ATOM     10  C   UNL     1      -2.646   1.188  -0.011  0.00  0.00    +0.000 A 
ENDBRANCH   2   3
BRANCH   1  13
ATOM     11  C   UNL     1       3.919   0.211  -0.149  0.00  0.00    +0.000 A 
ATOM     12  C   UNL     1       2.596   0.601  -0.138  0.00  0.00    +0.000 A 
ATOM     13  C   UNL     1       1.551  -0.294  -0.027  0.00  0.00    +0.000 A 
ATOM     14  C   UNL     1       1.851  -1.620   0.075  0.00  0.00    +0.000 A 
ATOM     15  C   UNL     1       3.164  -2.048   0.067  0.00  0.00    +0.000 A 
ATOM     16  C   UNL     1       4.210  -1.134  -0.045  0.00  0.00    +0.000 A 
ATOM     17  O   UNL     1       5.526  -1.543  -0.055  0.00  0.00    +0.000 OA
BRANCH  11  19
ATOM     18  C   UNL     1       4.641   2.480  -0.365  0.00  0.00    +0.000 C 
ATOM     19  O   UNL     1       4.965   1.111  -0.260  0.00  0.00    +0.000 OA
ENDBRANCH  11  19
ENDBRANCH   1  13
TORSDOF 3
