MODEL 1
REMARK VINA RESULT:      -6.1      0.000      0.000
REMARK  Name = 
REMARK  8 active torsions:
REMARK  status: ('A' for Active; 'I' for Inactive)
REMARK    1  A    between atoms: C_2  and  C_3
REMARK    2  A    between atoms: C_3  and  O_4
REMARK    3  A    between atoms: O_4  and  C_5
REMARK    4  A    between atoms: C_8  and  C_9
REMARK    5  A    between atoms: C_10  and  C_11
REMARK    6  A    between atoms: C_13  and  O_14
REMARK    7  A    between atoms: C_16  and  O_17
REMARK    8  A    between atoms: C_19  and  O_20
REMARK                            x       y       z     vdW  Elec       q    Type
REMARK                         _______ _______ _______ _____ _____    ______ ____
ROOT
ATOM      1  C   UNL     1      35.830  57.602  59.453  0.00  0.00    +0.000 C 
ATOM      2  C   UNL     1      36.017  56.676  60.236  0.00  0.00    +0.000 C 
ENDROOT
BRANCH   1   6
ATOM      3  C   UNL     1      37.016  58.183  55.371  0.00  0.00    +0.000 A 
ATOM      4  C   UNL     1      37.134  59.118  56.375  0.00  0.00    +0.000 A 
ATOM      5  C   UNL     1      36.744  58.891  57.662  0.00  0.00    +0.000 A 
ATOM      6  C   UNL     1      36.177  57.654  58.071  0.00  0.00    +0.000 A 
ATOM      7  C   UNL     1      36.074  56.757  57.064  0.00  0.00    +0.000 A 
ATOM      8  C   UNL     1      36.464  56.975  55.762  0.00  0.00    +0.000 A 
BRANCH   3   9
ATOM      9  O   UNL     1      37.411  58.410  54.062  0.00  0.00    +0.000 OA
BRANCH   9  10
ATOM     10  C   UNL     1      36.746  59.248  53.171  0.00  0.00    +0.000 C 
BRANCH  10  12
ATOM     11  C   UNL     1      34.371  59.633  53.930  0.00  0.00    +0.000 C 
ATOM     12  C   UNL     1      35.292  58.915  52.997  0.00  0.00    +0.000 C 
ENDBRANCH  10  12
ENDBRANCH   9  10
ENDBRANCH   3   9
ENDBRANCH   1   6
BRANCH   2  13
ATOM     13  C   UNL     1      36.628  55.417  59.958  0.00  0.00    +0.000 A 
ATOM     14  C   UNL     1      37.934  55.067  59.857  0.00  0.00    +0.000 A 
ATOM     15  C   UNL     1      38.396  53.793  59.577  0.00  0.00    +0.000 A 
ATOM     16  C   UNL     1      37.488  52.773  59.379  0.00  0.00    +0.000 A 
ATOM     17  C   UNL     1      36.127  53.066  59.469  0.00  0.00    +0.000 A 
ATOM     18  C   UNL     1      35.716  54.370  59.754  0.00  0.00    +0.000 A 
BRANCH  15  19
ATOM     19  O   UNL     1      39.726  53.460  59.480  0.00  0.00    +0.000 OA
ATOM     20  C   UNL     1      40.659  53.625  60.506  0.00  0.00    +0.000 C 
ENDBRANCH  15  19
BRANCH  16  21
ATOM     21  O   UNL     1      37.911  51.488  59.099  0.00  0.00    +0.000 OA
ATOM     22  C   UNL     1      38.152  50.531  60.108  0.00  0.00    +0.000 C 
ENDBRANCH  16  21
BRANCH  17  23
ATOM     23  O   UNL     1      35.257  52.085  59.280  0.00  0.00    +0.000 OA
ATOM     24  C   UNL     1      34.356  51.216  59.168  0.00  0.00    +0.000 C 
ENDBRANCH  17  23
ENDBRANCH   2  13
TORSDOF 8
ENDMDL
MODEL 2
REMARK VINA RESULT:      -6.0      1.443      2.917
REMARK  Name = 
REMARK  8 active torsions:
REMARK  status: ('A' for Active; 'I' for Inactive)
REMARK    1  A    between atoms: C_2  and  C_3
REMARK    2  A    between atoms: C_3  and  O_4
REMARK    3  A    between atoms: O_4  and  C_5
REMARK    4  A    between atoms: C_8  and  C_9
REMARK    5  A    between atoms: C_10  and  C_11
REMARK    6  A    between atoms: C_13  and  O_14
REMARK    7  A    between atoms: C_16  and  O_17
REMARK    8  A    between atoms: C_19  and  O_20
REMARK                            x       y       z     vdW  Elec       q    Type
REMARK                         _______ _______ _______ _____ _____    ______ ____
ROOT
ATOM      1  C   UNL     1      34.579  57.783  59.334  0.00  0.00    +0.000 C 
ATOM      2  C   UNL     1      34.842  56.850  60.087  0.00  0.00    +0.000 C 
ENDROOT
BRANCH   1   6
ATOM      3  C   UNL     1      35.437  58.464  55.187  0.00  0.00    +0.000 A 
ATOM      4  C   UNL     1      34.242  58.743  55.808  0.00  0.00    +0.000 A 
ATOM      5  C   UNL     1      34.011  58.511  57.132  0.00  0.00    +0.000 A 
ATOM      6  C   UNL     1      35.002  57.954  57.983  0.00  0.00    +0.000 A 
ATOM      7  C   UNL     1      36.165  57.691  57.345  0.00  0.00    +0.000 A 
ATOM      8  C   UNL     1      36.409  57.921  56.010  0.00  0.00    +0.000 A 
BRANCH   3   9
ATOM      9  O   UNL     1      35.676  58.699  53.841  0.00  0.00    +0.000 OA
BRANCH   9  10
ATOM     10  C   UNL     1      36.634  59.584  53.352  0.00  0.00    +0.000 C 
BRANCH  10  12
ATOM     11  C   UNL     1      35.308  61.714  53.623  0.00  0.00    +0.000 C 
ATOM     12  C   UNL     1      36.554  60.957  53.956  0.00  0.00    +0.000 C 
ENDBRANCH  10  12
ENDBRANCH   9  10
ENDBRANCH   3   9
ENDBRANCH   1   6
BRANCH   2  13
ATOM     13  C   UNL     1      35.637  55.702  59.798  0.00  0.00    +0.000 A 
ATOM     14  C   UNL     1      35.383  54.616  59.027  0.00  0.00    +0.000 A 
ATOM     15  C   UNL     1      36.254  53.559  58.831  0.00  0.00    +0.000 A 
ATOM     16  C   UNL     1      37.487  53.576  59.450  0.00  0.00    +0.000 A 
ATOM     17  C   UNL     1      37.813  54.666  60.257  0.00  0.00    +0.000 A 
ATOM     18  C   UNL     1      36.895  55.705  60.421  0.00  0.00    +0.000 A 
BRANCH  15  19
ATOM     19  O   UNL     1      35.974  52.467  58.044  0.00  0.00    +0.000 OA
ATOM     20  C   UNL     1      35.259  51.347  58.472  0.00  0.00    +0.000 C 
ENDBRANCH  15  19
BRANCH  16  21
ATOM     21  O   UNL     1      38.384  52.539  59.278  0.00  0.00    +0.000 OA
ATOM     22  C   UNL     1      39.386  52.560  58.284  0.00  0.00    +0.000 C 
ENDBRANCH  16  21
BRANCH  17  23
ATOM     23  O   UNL     1      38.997  54.680  60.850  0.00  0.00    +0.000 OA
ATOM     24  C   UNL     1      40.165  54.643  61.313  0.00  0.00    +0.000 C 
ENDBRANCH  17  23
ENDBRANCH   2  13
TORSDOF 8
ENDMDL
MODEL 3
REMARK VINA RESULT:      -6.0      1.717      1.979
REMARK  Name = 
REMARK  8 active torsions:
REMARK  status: ('A' for Active; 'I' for Inactive)
REMARK    1  A    between atoms: C_2  and  C_3
REMARK    2  A    between atoms: C_3  and  O_4
REMARK    3  A    between atoms: O_4  and  C_5
REMARK    4  A    between atoms: C_8  and  C_9
REMARK    5  A    between atoms: C_10  and  C_11
REMARK    6  A    between atoms: C_13  and  O_14
REMARK    7  A    between atoms: C_16  and  O_17
REMARK    8  A    between atoms: C_19  and  O_20
REMARK                            x       y       z     vdW  Elec       q    Type
REMARK                         _______ _______ _______ _____ _____    ______ ____
ROOT
ATOM      1  C   UNL     1      35.190  58.610  60.475  0.00  0.00    +0.000 C 
ATOM      2  C   UNL     1      35.520  57.534  60.965  0.00  0.00    +0.000 C 
ENDROOT
BRANCH   1   6
ATOM      3  C   UNL     1      35.330  59.779  56.350  0.00  0.00    +0.000 A 
ATOM      4  C   UNL     1      36.342  59.964  57.264  0.00  0.00    +0.000 A 
ATOM      5  C   UNL     1      36.256  59.576  58.568  0.00  0.00    +0.000 A 
ATOM      6  C   UNL     1      35.097  58.943  59.091  0.00  0.00    +0.000 A 
ATOM      7  C   UNL     1      34.121  58.775  58.171  0.00  0.00    +0.000 A 
ATOM      8  C   UNL     1      34.196  59.163  56.852  0.00  0.00    +0.000 A 
BRANCH   3   9
ATOM      9  O   UNL     1      35.414  60.172  55.023  0.00  0.00    +0.000 OA
BRANCH   9  10
ATOM     10  C   UNL     1      34.572  59.719  54.011  0.00  0.00    +0.000 C 
BRANCH  10  12
ATOM     11  C   UNL     1      36.743  58.751  53.164  0.00  0.00    +0.000 C 
ATOM     12  C   UNL     1      35.264  58.870  52.982  0.00  0.00    +0.000 C 
ENDBRANCH  10  12
ENDBRANCH   9  10
ENDBRANCH   3   9
ENDBRANCH   1   6
BRANCH   2  13
ATOM     13  C   UNL     1      35.892  56.345  60.270  0.00  0.00    +0.000 A 
ATOM     14  C   UNL     1      37.108  55.879  59.897  0.00  0.00    +0.000 A 
ATOM     15  C   UNL     1      37.331  54.693  59.217  0.00  0.00    +0.000 A 
ATOM     16  C   UNL     1      36.256  53.899  58.876  0.00  0.00    +0.000 A 
ATOM     17  C   UNL     1      34.975  54.321  59.231  0.00  0.00    +0.000 A 
ATOM     18  C   UNL     1      34.808  55.526  59.916  0.00  0.00    +0.000 A 
BRANCH  15  19
ATOM     19  O   UNL     1      38.575  54.239  58.848  0.00  0.00    +0.000 OA
ATOM     20  C   UNL     1      39.613  53.966  59.741  0.00  0.00    +0.000 C 
ENDBRANCH  15  19
BRANCH  16  21
ATOM     21  O   UNL     1      36.439  52.709  58.198  0.00  0.00    +0.000 OA
ATOM     22  C   UNL     1      36.542  51.466  58.860  0.00  0.00    +0.000 C 
ENDBRANCH  16  21
BRANCH  17  23
ATOM     23  O   UNL     1      33.946  53.555  58.903  0.00  0.00    +0.000 OA
ATOM     24  C   UNL     1      32.989  52.768  58.692  0.00  0.00    +0.000 C 
ENDBRANCH  17  23
ENDBRANCH   2  13
TORSDOF 8
ENDMDL
MODEL 4
REMARK VINA RESULT:      -5.8      2.247      7.744
REMARK  Name = 
REMARK  8 active torsions:
REMARK  status: ('A' for Active; 'I' for Inactive)
REMARK    1  A    between atoms: C_2  and  C_3
REMARK    2  A    between atoms: C_3  and  O_4
REMARK    3  A    between atoms: O_4  and  C_5
REMARK    4  A    between atoms: C_8  and  C_9
REMARK    5  A    between atoms: C_10  and  C_11
REMARK    6  A    between atoms: C_13  and  O_14
REMARK    7  A    between atoms: C_16  and  O_17
REMARK    8  A    between atoms: C_19  and  O_20
REMARK                            x       y       z     vdW  Elec       q    Type
REMARK                         _______ _______ _______ _____ _____    ______ ____
ROOT
ATOM      1  C   UNL     1      36.885  56.958  59.999  0.00  0.00    +0.000 C 
ATOM      2  C   UNL     1      36.722  58.063  59.491  0.00  0.00    +0.000 C 
ENDROOT
BRANCH   1   6
ATOM      3  C   UNL     1      34.632  53.384  59.258  0.00  0.00    +0.000 A 
ATOM      4  C   UNL     1      34.313  54.347  60.189  0.00  0.00    +0.000 A 
ATOM      5  C   UNL     1      35.059  55.470  60.392  0.00  0.00    +0.000 A 
ATOM      6  C   UNL     1      36.239  55.736  59.647  0.00  0.00    +0.000 A 
ATOM      7  C   UNL     1      36.526  54.774  58.742  0.00  0.00    +0.000 A 
ATOM      8  C   UNL     1      35.781  53.636  58.528  0.00  0.00    +0.000 A 
BRANCH   3   9
ATOM      9  O   UNL     1      33.876  52.240  59.049  0.00  0.00    +0.000 OA
BRANCH   9  10
ATOM     10  C   UNL     1      34.391  50.946  59.032  0.00  0.00    +0.000 C 
BRANCH  10  12
ATOM     11  C   UNL     1      36.343  50.300  60.495  0.00  0.00    +0.000 C 
ATOM     12  C   UNL     1      34.862  50.465  60.375  0.00  0.00    +0.000 C 
ENDBRANCH  10  12
ENDBRANCH   9  10
ENDBRANCH   3   9
ENDBRANCH   1   6
BRANCH   2  13
ATOM     13  C   UNL     1      35.843  58.402  58.419  0.00  0.00    +0.000 A 
ATOM     14  C   UNL     1      34.532  58.744  58.421  0.00  0.00    +0.000 A 
ATOM     15  C   UNL     1      33.789  59.051  57.293  0.00  0.00    +0.000 A 
ATOM     16  C   UNL     1      34.396  59.017  56.055  0.00  0.00    +0.000 A 
ATOM     17  C   UNL     1      35.745  58.672  55.983  0.00  0.00    +0.000 A 
ATOM     18  C   UNL     1      36.447  58.371  57.152  0.00  0.00    +0.000 A 
BRANCH  15  19
ATOM     19  O   UNL     1      32.458  59.397  57.319  0.00  0.00    +0.000 OA
ATOM     20  C   UNL     1      31.904  60.344  58.182  0.00  0.00    +0.000 C 
ENDBRANCH  15  19
BRANCH  16  21
ATOM     21  O   UNL     1      33.687  59.318  54.908  0.00  0.00    +0.000 OA
ATOM     22  C   UNL     1      33.546  60.638  54.427  0.00  0.00    +0.000 C 
ENDBRANCH  16  21
BRANCH  17  23
ATOM     23  O   UNL     1      36.325  58.641  54.793  0.00  0.00    +0.000 OA
ATOM     24  C   UNL     1      36.783  58.544  53.626  0.00  0.00    +0.000 C 
ENDBRANCH  17  23
ENDBRANCH   2  13
TORSDOF 8
ENDMDL
MODEL 5
REMARK VINA RESULT:      -5.8      2.107      7.451
REMARK  Name = 
REMARK  8 active torsions:
REMARK  status: ('A' for Active; 'I' for Inactive)
REMARK    1  A    between atoms: C_2  and  C_3
REMARK    2  A    between atoms: C_3  and  O_4
REMARK    3  A    between atoms: O_4  and  C_5
REMARK    4  A    between atoms: C_8  and  C_9
REMARK    5  A    between atoms: C_10  and  C_11
REMARK    6  A    between atoms: C_13  and  O_14
REMARK    7  A    between atoms: C_16  and  O_17
REMARK    8  A    between atoms: C_19  and  O_20
REMARK                            x       y       z     vdW  Elec       q    Type
REMARK                         _______ _______ _______ _____ _____    ______ ____
ROOT
ATOM      1  C   UNL     1      36.463  56.781  60.503  0.00  0.00    +0.000 C 
ATOM      2  C   UNL     1      36.476  57.822  59.853  0.00  0.00    +0.000 C 
ENDROOT
BRANCH   1   6
ATOM      3  C   UNL     1      35.199  52.892  59.207  0.00  0.00    +0.000 A 
ATOM      4  C   UNL     1      36.479  53.387  59.106  0.00  0.00    +0.000 A 
ATOM      5  C   UNL     1      36.838  54.632  59.532  0.00  0.00    +0.000 A 
ATOM      6  C   UNL     1      35.905  55.525  60.121  0.00  0.00    +0.000 A 
ATOM      7  C   UNL     1      34.657  55.011  60.206  0.00  0.00    +0.000 A 
ATOM      8  C   UNL     1      34.283  53.757  59.780  0.00  0.00    +0.000 A 
BRANCH   3   9
ATOM      9  O   UNL     1      34.829  51.627  58.775  0.00  0.00    +0.000 OA
BRANCH   9  10
ATOM     10  C   UNL     1      34.406  50.599  59.614  0.00  0.00    +0.000 C 
BRANCH  10  12
ATOM     11  C   UNL     1      36.537  49.877  60.757  0.00  0.00    +0.000 C 
ATOM     12  C   UNL     1      35.187  50.503  60.894  0.00  0.00    +0.000 C 
ENDBRANCH  10  12
ENDBRANCH   9  10
ENDBRANCH   3   9
ENDBRANCH   1   6
BRANCH   2  13
ATOM     13  C   UNL     1      35.934  58.036  58.551  0.00  0.00    +0.000 A 
ATOM     14  C   UNL     1      36.415  57.716  57.325  0.00  0.00    +0.000 A 
ATOM     15  C   UNL     1      35.779  57.986  56.125  0.00  0.00    +0.000 A 
ATOM     16  C   UNL     1      34.559  58.630  56.138  0.00  0.00    +0.000 A 
ATOM     17  C   UNL     1      34.007  58.987  57.368  0.00  0.00    +0.000 A 
ATOM     18  C   UNL     1      34.692  58.690  58.548  0.00  0.00    +0.000 A 
BRANCH  15  19
ATOM     19  O   UNL     1      36.287  57.652  54.892  0.00  0.00    +0.000 OA
ATOM     20  C   UNL     1      37.420  58.233  54.319  0.00  0.00    +0.000 C 
ENDBRANCH  15  19
BRANCH  16  21
ATOM     21  O   UNL     1      33.894  58.917  54.961  0.00  0.00    +0.000 OA
ATOM     22  C   UNL     1      34.061  60.137  54.273  0.00  0.00    +0.000 C 
ENDBRANCH  16  21
BRANCH  17  23
ATOM     23  O   UNL     1      32.835  59.605  57.377  0.00  0.00    +0.000 OA
ATOM     24  C   UNL     1      31.753  60.234  57.493  0.00  0.00    +0.000 C 
ENDBRANCH  17  23
ENDBRANCH   2  13
TORSDOF 8
ENDMDL
MODEL 6
REMARK VINA RESULT:      -5.7      2.068      7.246
REMARK  Name = 
REMARK  8 active torsions:
REMARK  status: ('A' for Active; 'I' for Inactive)
REMARK    1  A    between atoms: C_2  and  C_3
REMARK    2  A    between atoms: C_3  and  O_4
REMARK    3  A    between atoms: O_4  and  C_5
REMARK    4  A    between atoms: C_8  and  C_9
REMARK    5  A    between atoms: C_10  and  C_11
REMARK    6  A    between atoms: C_13  and  O_14
REMARK    7  A    between atoms: C_16  and  O_17
REMARK    8  A    between atoms: C_19  and  O_20
REMARK                            x       y       z     vdW  Elec       q    Type
REMARK                         _______ _______ _______ _____ _____    ______ ____
ROOT
ATOM      1  C   UNL     1      34.848  57.220  60.171  0.00  0.00    +0.000 C 
ATOM      2  C   UNL     1      34.542  58.201  59.499  0.00  0.00    +0.000 C 
ENDROOT
BRANCH   1   6
ATOM      3  C   UNL     1      36.851  53.651  58.885  0.00  0.00    +0.000 A 
ATOM      4  C   UNL     1      37.466  54.758  59.424  0.00  0.00    +0.000 A 
ATOM      5  C   UNL     1      36.790  55.874  59.820  0.00  0.00    +0.000 A 
ATOM      6  C   UNL     1      35.378  55.980  59.706  0.00  0.00    +0.000 A 
ATOM      7  C   UNL     1      34.802  54.878  59.174  0.00  0.00    +0.000 A 
ATOM      8  C   UNL     1      35.474  53.747  58.770  0.00  0.00    +0.000 A 
BRANCH   3   9
ATOM      9  O   UNL     1      37.535  52.514  58.481  0.00  0.00    +0.000 OA
BRANCH   9  10
ATOM     10  C   UNL     1      38.322  51.727  59.317  0.00  0.00    +0.000 C 
BRANCH  10  12
ATOM     11  C   UNL     1      40.154  52.534  57.780  0.00  0.00    +0.000 C 
ATOM     12  C   UNL     1      39.797  51.873  59.072  0.00  0.00    +0.000 C 
ENDBRANCH  10  12
ENDBRANCH   9  10
ENDBRANCH   3   9
ENDBRANCH   1   6
BRANCH   2  13
ATOM     13  C   UNL     1      34.638  58.344  58.083  0.00  0.00    +0.000 A 
ATOM     14  C   UNL     1      35.553  57.870  57.202  0.00  0.00    +0.000 A 
ATOM     15  C   UNL     1      35.528  58.088  55.836  0.00  0.00    +0.000 A 
ATOM     16  C   UNL     1      34.509  58.841  55.290  0.00  0.00    +0.000 A 
ATOM     17  C   UNL     1      33.533  59.359  56.142  0.00  0.00    +0.000 A 
ATOM     18  C   UNL     1      33.607  59.108  57.513  0.00  0.00    +0.000 A 
BRANCH  15  19
ATOM     19  O   UNL     1      36.468  57.596  54.960  0.00  0.00    +0.000 OA
ATOM     20  C   UNL     1      37.673  58.232  54.655  0.00  0.00    +0.000 C 
ENDBRANCH  15  19
BRANCH  16  21
ATOM     21  O   UNL     1      34.451  59.079  53.930  0.00  0.00    +0.000 OA
ATOM     22  C   UNL     1      35.020  60.226  53.336  0.00  0.00    +0.000 C 
ENDBRANCH  16  21
BRANCH  17  23
ATOM     23  O   UNL     1      32.556  60.081  55.615  0.00  0.00    +0.000 OA
ATOM     24  C   UNL     1      31.559  60.669  55.126  0.00  0.00    +0.000 C 
ENDBRANCH  17  23
ENDBRANCH   2  13
TORSDOF 8
ENDMDL
MODEL 7
REMARK VINA RESULT:      -5.6      2.435      7.291
REMARK  Name = 
REMARK  8 active torsions:
REMARK  status: ('A' for Active; 'I' for Inactive)
REMARK    1  A    between atoms: C_2  and  C_3
REMARK    2  A    between atoms: C_3  and  O_4
REMARK    3  A    between atoms: O_4  and  C_5
REMARK    4  A    between atoms: C_8  and  C_9
REMARK    5  A    between atoms: C_10  and  C_11
REMARK    6  A    between atoms: C_13  and  O_14
REMARK    7  A    between atoms: C_16  and  O_17
REMARK    8  A    between atoms: C_19  and  O_20
REMARK                            x       y       z     vdW  Elec       q    Type
REMARK                         _______ _______ _______ _____ _____    ______ ____
ROOT
ATOM      1  C   UNL     1      36.215  54.288  60.533  0.00  0.00    +0.000 C 
ATOM      2  C   UNL     1      35.480  55.233  60.260  0.00  0.00    +0.000 C 
ENDROOT
BRANCH   1   6
ATOM      3  C   UNL     1      40.331  53.760  59.447  0.00  0.00    +0.000 A 
ATOM      4  C   UNL     1      39.884  54.362  60.601  0.00  0.00    +0.000 A 
ATOM      5  C   UNL     1      38.563  54.509  60.908  0.00  0.00    +0.000 A 
ATOM      6  C   UNL     1      37.533  54.046  60.046  0.00  0.00    +0.000 A 
ATOM      7  C   UNL     1      38.003  53.459  58.922  0.00  0.00    +0.000 A 
ATOM      8  C   UNL     1      39.333  53.305  58.602  0.00  0.00    +0.000 A 
BRANCH   3   9
ATOM      9  O   UNL     1      41.673  53.608  59.132  0.00  0.00    +0.000 OA
BRANCH   9  10
ATOM     10  C   UNL     1      42.180  52.618  58.294  0.00  0.00    +0.000 C 
BRANCH  10  12
ATOM     11  C   UNL     1      43.969  50.900  58.757  0.00  0.00    +0.000 C 
ATOM     12  C   UNL     1      42.570  51.358  59.014  0.00  0.00    +0.000 C 
ENDBRANCH  10  12
ENDBRANCH   9  10
ENDBRANCH   3   9
ENDBRANCH   1   6
BRANCH   2  13
ATOM     13  C   UNL     1      35.762  56.325  59.387  0.00  0.00    +0.000 A 
ATOM     14  C   UNL     1      35.608  56.453  58.047  0.00  0.00    +0.000 A 
ATOM     15  C   UNL     1      35.928  57.584  57.314  0.00  0.00    +0.000 A 
ATOM     16  C   UNL     1      36.444  58.686  57.964  0.00  0.00    +0.000 A 
ATOM     17  C   UNL     1      36.626  58.620  59.345  0.00  0.00    +0.000 A 
ATOM     18  C   UNL     1      36.288  57.454  60.034  0.00  0.00    +0.000 A 
BRANCH  15  19
ATOM     19  O   UNL     1      35.763  57.691  55.953  0.00  0.00    +0.000 OA
ATOM     20  C   UNL     1      36.619  57.126  55.007  0.00  0.00    +0.000 C 
ENDBRANCH  15  19
BRANCH  16  21
ATOM     21  O   UNL     1      36.773  59.832  57.267  0.00  0.00    +0.000 OA
ATOM     22  C   UNL     1      38.083  60.091  56.807  0.00  0.00    +0.000 C 
ENDBRANCH  16  21
BRANCH  17  23
ATOM     23  O   UNL     1      37.122  59.680  59.966  0.00  0.00    +0.000 OA
ATOM     24  C   UNL     1      37.517  60.661  60.646  0.00  0.00    +0.000 C 
ENDBRANCH  17  23
ENDBRANCH   2  13
TORSDOF 8
ENDMDL
MODEL 8
REMARK VINA RESULT:      -5.5      2.356      7.195
REMARK  Name = 
REMARK  8 active torsions:
REMARK  status: ('A' for Active; 'I' for Inactive)
REMARK    1  A    between atoms: C_2  and  C_3
REMARK    2  A    between atoms: C_3  and  O_4
REMARK    3  A    between atoms: O_4  and  C_5
REMARK    4  A    between atoms: C_8  and  C_9
REMARK    5  A    between atoms: C_10  and  C_11
REMARK    6  A    between atoms: C_13  and  O_14
REMARK    7  A    between atoms: C_16  and  O_17
REMARK    8  A    between atoms: C_19  and  O_20
REMARK                            x       y       z     vdW  Elec       q    Type
REMARK                         _______ _______ _______ _____ _____    ______ ____
ROOT
ATOM      1  C   UNL     1      36.290  54.179  60.638  0.00  0.00    +0.000 C 
ATOM      2  C   UNL     1      35.543  55.113  60.362  0.00  0.00    +0.000 C 
ENDROOT
BRANCH   1   6
ATOM      3  C   UNL     1      40.410  53.685  59.550  0.00  0.00    +0.000 A 
ATOM      4  C   UNL     1      39.335  53.223  58.825  0.00  0.00    +0.000 A 
ATOM      5  C   UNL     1      38.038  53.403  59.208  0.00  0.00    +0.000 A 
ATOM      6  C   UNL     1      37.694  54.090  60.403  0.00  0.00    +0.000 A 
ATOM      7  C   UNL     1      38.770  54.531  61.093  0.00  0.00    +0.000 A 
ATOM      8  C   UNL     1      40.082  54.356  60.716  0.00  0.00    +0.000 A 
BRANCH   3   9
ATOM      9  O   UNL     1      41.730  53.504  59.164  0.00  0.00    +0.000 OA
BRANCH   9  10
ATOM     10  C   UNL     1      42.149  52.609  58.183  0.00  0.00    +0.000 C 
BRANCH  10  12
ATOM     11  C   UNL     1      42.449  50.626  59.715  0.00  0.00    +0.000 C 
ATOM     12  C   UNL     1      43.063  51.533  58.697  0.00  0.00    +0.000 C 
ENDBRANCH  10  12
ENDBRANCH   9  10
ENDBRANCH   3   9
ENDBRANCH   1   6
BRANCH   2  13
ATOM     13  C   UNL     1      35.895  56.345  59.736  0.00  0.00    +0.000 A 
ATOM     14  C   UNL     1      36.230  57.547  60.265  0.00  0.00    +0.000 A 
ATOM     15  C   UNL     1      36.552  58.677  59.532  0.00  0.00    +0.000 A 
ATOM     16  C   UNL     1      36.541  58.613  58.154  0.00  0.00    +0.000 A 
ATOM     17  C   UNL     1      36.205  57.404  57.544  0.00  0.00    +0.000 A 
ATOM     18  C   UNL     1      35.888  56.296  58.332  0.00  0.00    +0.000 A 
BRANCH  15  19
ATOM     19  O   UNL     1      36.890  59.886  60.091  0.00  0.00    +0.000 OA
ATOM     20  C   UNL     1      36.023  60.677  60.847  0.00  0.00    +0.000 C 
ENDBRANCH  15  19
BRANCH  16  21
ATOM     21  O   UNL     1      36.857  59.720  57.389  0.00  0.00    +0.000 OA
ATOM     22  C   UNL     1      35.883  60.642  56.950  0.00  0.00    +0.000 C 
ENDBRANCH  16  21
BRANCH  17  23
ATOM     23  O   UNL     1      36.196  57.347  56.221  0.00  0.00    +0.000 OA
ATOM     24  C   UNL     1      36.300  57.333  54.969  0.00  0.00    +0.000 C 
ENDBRANCH  17  23
ENDBRANCH   2  13
TORSDOF 8
ENDMDL
MODEL 9
REMARK VINA RESULT:      -5.5      2.725      5.006
REMARK  Name = 
REMARK  8 active torsions:
REMARK  status: ('A' for Active; 'I' for Inactive)
REMARK    1  A    between atoms: C_2  and  C_3
REMARK    2  A    between atoms: C_3  and  O_4
REMARK    3  A    between atoms: O_4  and  C_5
REMARK    4  A    between atoms: C_8  and  C_9
REMARK    5  A    between atoms: C_10  and  C_11
REMARK    6  A    between atoms: C_13  and  O_14
REMARK    7  A    between atoms: C_16  and  O_17
REMARK    8  A    between atoms: C_19  and  O_20
REMARK                            x       y       z     vdW  Elec       q    Type
REMARK                         _______ _______ _______ _____ _____    ______ ____
ROOT
ATOM      1  C   UNL     1      34.068  51.776  58.871  0.00  0.00    +0.000 C 
ATOM      2  C   UNL     1      34.500  50.821  59.510  0.00  0.00    +0.000 C 
ENDROOT
BRANCH   1   6
ATOM      3  C   UNL     1      35.424  55.839  59.104  0.00  0.00    +0.000 A 
ATOM      4  C   UNL     1      36.040  54.834  58.394  0.00  0.00    +0.000 A 
ATOM      5  C   UNL     1      35.574  53.553  58.347  0.00  0.00    +0.000 A 
ATOM      6  C   UNL     1      34.399  53.153  59.038  0.00  0.00    +0.000 A 
ATOM      7  C   UNL     1      33.817  54.161  59.726  0.00  0.00    +0.000 A 
ATOM      8  C   UNL     1      34.278  55.456  59.781  0.00  0.00    +0.000 A 
BRANCH   3   9
ATOM      9  O   UNL     1      35.895  57.142  59.155  0.00  0.00    +0.000 OA
BRANCH   9  10
ATOM     10  C   UNL     1      36.427  57.832  58.068  0.00  0.00    +0.000 C 
BRANCH  10  12
ATOM     11  C   UNL     1      36.004  57.390  55.620  0.00  0.00    +0.000 C 
ATOM     12  C   UNL     1      35.484  57.949  56.905  0.00  0.00    +0.000 C 
ENDBRANCH  10  12
ENDBRANCH   9  10
ENDBRANCH   3   9
ENDBRANCH   1   6
BRANCH   2  13
ATOM     13  C   UNL     1      35.443  50.850  60.579  0.00  0.00    +0.000 A 
ATOM     14  C   UNL     1      35.285  51.130  61.896  0.00  0.00    +0.000 A 
ATOM     15  C   UNL     1      36.299  51.124  62.838  0.00  0.00    +0.000 A 
ATOM     16  C   UNL     1      37.584  50.813  62.444  0.00  0.00    +0.000 A 
ATOM     17  C   UNL     1      37.816  50.514  61.102  0.00  0.00    +0.000 A 
ATOM     18  C   UNL     1      36.756  50.536  60.194  0.00  0.00    +0.000 A 
BRANCH  15  19
ATOM     19  O   UNL     1      36.115  51.411  64.170  0.00  0.00    +0.000 OA
ATOM     20  C   UNL     1      34.895  51.303  64.840  0.00  0.00    +0.000 C 
ENDBRANCH  15  19
BRANCH  16  21
ATOM     21  O   UNL     1      38.622  50.795  63.356  0.00  0.00    +0.000 OA
ATOM     22  C   UNL     1      39.422  51.929  63.617  0.00  0.00    +0.000 C 
ENDBRANCH  16  21
BRANCH  17  23
ATOM     23  O   UNL     1      39.051  50.215  60.727  0.00  0.00    +0.000 OA
ATOM     24  C   UNL     1      40.235  50.047  60.339  0.00  0.00    +0.000 C 
ENDBRANCH  17  23
ENDBRANCH   2  13
TORSDOF 8
ENDMDL
MODEL 10
REMARK VINA RESULT:      -5.5      3.227      5.637
REMARK  Name = 
REMARK  8 active torsions:
REMARK  status: ('A' for Active; 'I' for Inactive)
REMARK    1  A    between atoms: C_2  and  C_3
REMARK    2  A    between atoms: C_3  and  O_4
REMARK    3  A    between atoms: O_4  and  C_5
REMARK    4  A    between atoms: C_8  and  C_9
REMARK    5  A    between atoms: C_10  and  C_11
REMARK    6  A    between atoms: C_13  and  O_14
REMARK    7  A    between atoms: C_16  and  O_17
REMARK    8  A    between atoms: C_19  and  O_20
REMARK                            x       y       z     vdW  Elec       q    Type
REMARK                         _______ _______ _______ _____ _____    ______ ____
ROOT
ATOM      1  C   UNL     1      35.650  58.892  53.738  0.00  0.00    +0.000 C 
ATOM      2  C   UNL     1      36.368  58.119  54.365  0.00  0.00    +0.000 C 
ENDROOT
BRANCH   1   6
ATOM      3  C   UNL     1      32.555  61.376  55.366  0.00  0.00    +0.000 A 
ATOM      4  C   UNL     1      32.454  60.021  55.145  0.00  0.00    +0.000 A 
ATOM      5  C   UNL     1      33.465  59.268  54.625  0.00  0.00    +0.000 A 
ATOM      6  C   UNL     1      34.718  59.833  54.266  0.00  0.00    +0.000 A 
ATOM      7  C   UNL     1      34.786  61.164  54.494  0.00  0.00    +0.000 A 
ATOM      8  C   UNL     1      33.773  61.934  55.018  0.00  0.00    +0.000 A 
BRANCH   3   9
ATOM      9  O   UNL     1      31.529  62.145  55.895  0.00  0.00    +0.000 OA
BRANCH   9  10
ATOM     10  C   UNL     1      30.910  61.901  57.118  0.00  0.00    +0.000 C 
BRANCH  10  12
ATOM     11  C   UNL     1      29.300  59.959  57.030  0.00  0.00    +0.000 C 
ATOM     12  C   UNL     1      29.485  61.442  56.994  0.00  0.00    +0.000 C 
ENDBRANCH  10  12
ENDBRANCH   9  10
ENDBRANCH   3   9
ENDBRANCH   1   6
BRANCH   2  13
ATOM     13  C   UNL     1      36.448  57.969  55.781  0.00  0.00    +0.000 A 
ATOM     14  C   UNL     1      36.704  58.873  56.757  0.00  0.00    +0.000 A 
ATOM     15  C   UNL     1      36.755  58.590  58.111  0.00  0.00    +0.000 A 
ATOM     16  C   UNL     1      36.532  57.297  58.539  0.00  0.00    +0.000 A 
ATOM     17  C   UNL     1      36.261  56.316  57.585  0.00  0.00    +0.000 A 
ATOM     18  C   UNL     1      36.223  56.658  56.232  0.00  0.00    +0.000 A 
BRANCH  15  19
ATOM     19  O   UNL     1      37.016  59.525  59.085  0.00  0.00    +0.000 OA
ATOM     20  C   UNL     1      38.020  60.492  59.002  0.00  0.00    +0.000 C 
ENDBRANCH  15  19
BRANCH  16  21
ATOM     21  O   UNL     1      36.573  56.976  59.882  0.00  0.00    +0.000 OA
ATOM     22  C   UNL     1      35.428  57.016  60.708  0.00  0.00    +0.000 C 
ENDBRANCH  16  21
BRANCH  17  23
ATOM     23  O   UNL     1      36.047  55.077  57.999  0.00  0.00    +0.000 OA
ATOM     24  C   UNL     1      35.727  53.927  58.396  0.00  0.00    +0.000 C 
ENDBRANCH  17  23
ENDBRANCH   2  13
TORSDOF 8
ENDMDL
