REMARK  Name = 
REMARK  3 active torsions:
REMARK  status: ('A' for Active; 'I' for Inactive)
REMARK    1  A    between atoms: O_2  and  C_3
REMARK    2  A    between atoms: C_6  and  C_7
REMARK    3  A    between atoms: C_8  and  C_9
REMARK                            x       y       z     vdW  Elec       q    Type
REMARK                         _______ _______ _______ _____ _____    ______ ____
ROOT
ATOM      1  C   UNL     1       0.437   0.382  -2.257  0.00  0.00    +0.000 C 
ATOM      2  C   UNL     1      -0.785   0.167  -2.358  0.00  0.00    +0.000 C 
ENDROOT
BRANCH   2   3
ATOM      3  C   UNL     1      -1.666  -0.254  -1.314  0.00  0.00    +0.000 A 
ATOM      4  C   UNL     1      -1.451  -0.523  -0.010  0.00  0.00    +0.000 A 
ATOM      5  C   UNL     1      -2.385  -0.922   0.896  0.00  0.00    +0.000 A 
ATOM      6  O   UNL     1      -2.000  -1.156   2.194  0.00  0.00    +0.000 OA
ATOM      7  C   UNL     1      -3.676  -1.068   0.449  0.00  0.00    +0.000 A 
ATOM      8  C   UNL     1      -3.988  -0.815  -0.867  0.00  0.00    +0.000 A 
ATOM      9  O   UNL     1      -5.314  -0.966  -1.322  0.00  0.00    +0.000 OA
ATOM     10  C   UNL     1      -3.010  -0.417  -1.735  0.00  0.00    +0.000 A 
ENDBRANCH   2   3
BRANCH   1  14
ATOM     11  C   UNL     1       3.108   0.115   1.049  0.00  0.00    +0.000 A 
ATOM     12  C   UNL     1       3.478   0.489  -0.219  0.00  0.00    +0.000 A 
ATOM     13  C   UNL     1       2.612   0.572  -1.274  0.00  0.00    +0.000 A 
ATOM     14  C   UNL     1       1.244   0.265  -1.107  0.00  0.00    +0.000 A 
ATOM     15  C   UNL     1       0.903  -0.100   0.142  0.00  0.00    +0.000 A 
ATOM     16  C   UNL     1       1.768  -0.189   1.225  0.00  0.00    +0.000 A 
ATOM     17  O   UNL     1       1.339  -0.572   2.481  0.00  0.00    +0.000 OA
BRANCH  11  19
ATOM     18  C   UNL     1       5.377   0.349   1.927  0.00  0.00    +0.000 C 
ATOM     19  O   UNL     1       4.008   0.040   2.101  0.00  0.00    +0.000 OA
ENDBRANCH  11  19
ENDBRANCH   1  14
TORSDOF 3
