MODEL 1
REMARK VINA RESULT:      -6.7      0.000      0.000
REMARK  Name = 
REMARK  8 active torsions:
REMARK  status: ('A' for Active; 'I' for Inactive)
REMARK    1  A    between atoms: C_2  and  O_4
REMARK    2  A    between atoms: O_4  and  C_5
REMARK    3  A    between atoms: C_8  and  C_9
REMARK    4  A    between atoms: C_10  and  C_11
REMARK    5  A    between atoms: C_13  and  O_14
REMARK    6  A    between atoms: O_14  and  C_15
REMARK    7  A    between atoms: C_19  and  O_20
REMARK    8  A    between atoms: O_20  and  C_21
REMARK                            x       y       z     vdW  Elec       q    Type
REMARK                         _______ _______ _______ _____ _____    ______ ____
ROOT
ATOM      1  C   UNL     1      36.669  54.042  58.910  0.00  0.00    +0.000 A 
ATOM      2  C   UNL     1      37.930  53.556  58.691  0.00  0.00    +0.000 A 
ATOM      3  C   UNL     1      38.519  52.611  59.523  0.00  0.00    +0.000 A 
ATOM      4  C   UNL     1      37.763  52.172  60.604  0.00  0.00    +0.000 A 
ATOM      5  C   UNL     1      36.498  52.634  60.856  0.00  0.00    +0.000 A 
ATOM      6  C   UNL     1      35.970  53.572  59.994  0.00  0.00    +0.000 A 
ENDROOT
BRANCH   1   8
ATOM      7  C   UNL     1      36.483  56.229  57.821  0.00  0.00    +0.000 C 
ATOM      8  C   UNL     1      36.017  55.033  58.060  0.00  0.00    +0.000 C 
BRANCH   7  12
ATOM      9  C   UNL     1      34.450  59.065  55.349  0.00  0.00    +0.000 A 
ATOM     10  C   UNL     1      34.101  58.825  56.656  0.00  0.00    +0.000 A 
ATOM     11  C   UNL     1      34.745  57.918  57.463  0.00  0.00    +0.000 A 
ATOM     12  C   UNL     1      35.795  57.199  56.959  0.00  0.00    +0.000 A 
ATOM     13  C   UNL     1      36.178  57.407  55.657  0.00  0.00    +0.000 A 
ATOM     14  C   UNL     1      35.510  58.329  54.866  0.00  0.00    +0.000 A 
BRANCH   9  15
ATOM     15  O   UNL     1      33.814  59.973  54.523  0.00  0.00    +0.000 OA
BRANCH  15  17
ATOM     16  C   UNL     1      31.360  60.433  54.912  0.00  0.00    +0.000 C 
ATOM     17  C   UNL     1      32.808  60.808  54.990  0.00  0.00    +0.000 C 
ATOM     18  O   UNL     1      33.180  61.915  55.490  0.00  0.00    +0.000 OA
ENDBRANCH  15  17
ENDBRANCH   9  15
ENDBRANCH   7  12
ENDBRANCH   1   8
BRANCH   3  19
ATOM     19  O   UNL     1      39.802  52.142  59.269  0.00  0.00    +0.000 OA
BRANCH  19  20
ATOM     20  C   UNL     1      40.910  52.961  59.204  0.00  0.00    +0.000 C 
ATOM     21  C   UNL     1      41.980  52.647  58.231  0.00  0.00    +0.000 C 
ATOM     22  O   UNL     1      40.988  53.956  59.975  0.00  0.00    +0.000 OA
ENDBRANCH  19  20
ENDBRANCH   3  19
BRANCH   5  23
ATOM     23  O   UNL     1      35.718  52.217  61.925  0.00  0.00    +0.000 OA
BRANCH  23  24
ATOM     24  C   UNL     1      35.503  50.864  62.142  0.00  0.00    +0.000 C 
ATOM     25  C   UNL     1      34.842  49.999  61.112  0.00  0.00    +0.000 C 
ATOM     26  O   UNL     1      35.880  50.378  63.233  0.00  0.00    +0.000 OA
ENDBRANCH  23  24
ENDBRANCH   5  23
TORSDOF 8
ENDMDL
MODEL 2
REMARK VINA RESULT:      -6.7      1.487      4.054
REMARK  Name = 
REMARK  8 active torsions:
REMARK  status: ('A' for Active; 'I' for Inactive)
REMARK    1  A    between atoms: C_2  and  O_4
REMARK    2  A    between atoms: O_4  and  C_5
REMARK    3  A    between atoms: C_8  and  C_9
REMARK    4  A    between atoms: C_10  and  C_11
REMARK    5  A    between atoms: C_13  and  O_14
REMARK    6  A    between atoms: O_14  and  C_15
REMARK    7  A    between atoms: C_19  and  O_20
REMARK    8  A    between atoms: O_20  and  C_21
REMARK                            x       y       z     vdW  Elec       q    Type
REMARK                         _______ _______ _______ _____ _____    ______ ____
ROOT
ATOM      1  C   UNL     1      36.555  54.998  59.814  0.00  0.00    +0.000 A 
ATOM      2  C   UNL     1      35.671  54.206  60.498  0.00  0.00    +0.000 A 
ATOM      3  C   UNL     1      36.085  53.245  61.412  0.00  0.00    +0.000 A 
ATOM      4  C   UNL     1      37.456  53.115  61.608  0.00  0.00    +0.000 A 
ATOM      5  C   UNL     1      38.371  53.889  60.943  0.00  0.00    +0.000 A 
ATOM      6  C   UNL     1      37.897  54.825  60.048  0.00  0.00    +0.000 A 
ENDROOT
BRANCH   1   8
ATOM      7  C   UNL     1      36.380  55.947  57.563  0.00  0.00    +0.000 C 
ATOM      8  C   UNL     1      36.161  56.017  58.848  0.00  0.00    +0.000 C 
BRANCH   7  12
ATOM      9  C   UNL     1      35.205  58.983  54.789  0.00  0.00    +0.000 A 
ATOM     10  C   UNL     1      36.095  57.984  54.474  0.00  0.00    +0.000 A 
ATOM     11  C   UNL     1      36.482  57.002  55.354  0.00  0.00    +0.000 A 
ATOM     12  C   UNL     1      35.966  56.997  56.622  0.00  0.00    +0.000 A 
ATOM     13  C   UNL     1      35.074  57.976  56.980  0.00  0.00    +0.000 A 
ATOM     14  C   UNL     1      34.700  58.955  56.071  0.00  0.00    +0.000 A 
BRANCH   9  15
ATOM     15  O   UNL     1      34.804  59.978  53.917  0.00  0.00    +0.000 OA
BRANCH  15  17
ATOM     16  C   UNL     1      34.184  62.327  54.613  0.00  0.00    +0.000 C 
ATOM     17  C   UNL     1      35.158  61.307  54.110  0.00  0.00    +0.000 C 
ATOM     18  O   UNL     1      36.359  61.616  53.837  0.00  0.00    +0.000 OA
ENDBRANCH  15  17
ENDBRANCH   9  15
ENDBRANCH   7  12
ENDBRANCH   1   8
BRANCH   3  19
ATOM     19  O   UNL     1      35.158  52.460  62.086  0.00  0.00    +0.000 OA
BRANCH  19  20
ATOM     20  C   UNL     1      35.061  51.093  61.925  0.00  0.00    +0.000 C 
ATOM     21  C   UNL     1      34.949  50.537  60.557  0.00  0.00    +0.000 C 
ATOM     22  O   UNL     1      35.068  50.350  62.943  0.00  0.00    +0.000 OA
ENDBRANCH  19  20
ENDBRANCH   3  19
BRANCH   5  23
ATOM     23  O   UNL     1      39.745  53.786  61.115  0.00  0.00    +0.000 OA
BRANCH  23  24
ATOM     24  C   UNL     1      40.518  53.146  60.158  0.00  0.00    +0.000 C 
ATOM     25  C   UNL     1      40.453  51.662  59.960  0.00  0.00    +0.000 C 
ATOM     26  O   UNL     1      41.280  53.849  59.455  0.00  0.00    +0.000 OA
ENDBRANCH  23  24
ENDBRANCH   5  23
TORSDOF 8
ENDMDL
MODEL 3
REMARK VINA RESULT:      -6.7      0.826      4.052
REMARK  Name = 
REMARK  8 active torsions:
REMARK  status: ('A' for Active; 'I' for Inactive)
REMARK    1  A    between atoms: C_2  and  O_4
REMARK    2  A    between atoms: O_4  and  C_5
REMARK    3  A    between atoms: C_8  and  C_9
REMARK    4  A    between atoms: C_10  and  C_11
REMARK    5  A    between atoms: C_13  and  O_14
REMARK    6  A    between atoms: O_14  and  C_15
REMARK    7  A    between atoms: C_19  and  O_20
REMARK    8  A    between atoms: O_20  and  C_21
REMARK                            x       y       z     vdW  Elec       q    Type
REMARK                         _______ _______ _______ _____ _____    ______ ____
ROOT
ATOM      1  C   UNL     1      36.728  54.651  59.330  0.00  0.00    +0.000 A 
ATOM      2  C   UNL     1      36.287  54.240  60.560  0.00  0.00    +0.000 A 
ATOM      3  C   UNL     1      36.906  53.220  61.271  0.00  0.00    +0.000 A 
ATOM      4  C   UNL     1      38.012  52.623  60.675  0.00  0.00    +0.000 A 
ATOM      5  C   UNL     1      38.484  53.007  59.447  0.00  0.00    +0.000 A 
ATOM      6  C   UNL     1      37.825  54.025  58.791  0.00  0.00    +0.000 A 
ENDROOT
BRANCH   1   8
ATOM      7  C   UNL     1      36.490  56.090  57.361  0.00  0.00    +0.000 C 
ATOM      8  C   UNL     1      36.106  55.717  58.552  0.00  0.00    +0.000 C 
BRANCH   7  12
ATOM      9  C   UNL     1      34.610  59.221  55.135  0.00  0.00    +0.000 A 
ATOM     10  C   UNL     1      35.564  58.389  54.599  0.00  0.00    +0.000 A 
ATOM     11  C   UNL     1      36.177  57.379  55.302  0.00  0.00    +0.000 A 
ATOM     12  C   UNL     1      35.835  57.170  56.610  0.00  0.00    +0.000 A 
ATOM     13  C   UNL     1      34.887  57.977  57.187  0.00  0.00    +0.000 A 
ATOM     14  C   UNL     1      34.284  58.989  56.454  0.00  0.00    +0.000 A 
BRANCH   9  15
ATOM     15  O   UNL     1      33.983  60.241  54.445  0.00  0.00    +0.000 OA
BRANCH  15  17
ATOM     16  C   UNL     1      31.518  60.460  54.954  0.00  0.00    +0.000 C 
ATOM     17  C   UNL     1      32.930  60.958  54.995  0.00  0.00    +0.000 C 
ATOM     18  O   UNL     1      33.226  62.067  55.540  0.00  0.00    +0.000 OA
ENDBRANCH  15  17
ENDBRANCH   9  15
ENDBRANCH   7  12
ENDBRANCH   1   8
BRANCH   3  19
ATOM     19  O   UNL     1      36.428  52.830  62.516  0.00  0.00    +0.000 OA
BRANCH  19  20
ATOM     20  C   UNL     1      35.520  51.807  62.693  0.00  0.00    +0.000 C 
ATOM     21  C   UNL     1      35.217  51.345  64.066  0.00  0.00    +0.000 C 
ATOM     22  O   UNL     1      34.970  51.289  61.684  0.00  0.00    +0.000 OA
ENDBRANCH  19  20
ENDBRANCH   3  19
BRANCH   5  23
ATOM     23  O   UNL     1      39.584  52.433  58.824  0.00  0.00    +0.000 OA
BRANCH  23  24
ATOM     24  C   UNL     1      40.831  53.030  58.929  0.00  0.00    +0.000 C 
ATOM     25  C   UNL     1      41.995  52.567  58.105  0.00  0.00    +0.000 C 
ATOM     26  O   UNL     1      40.961  53.977  59.738  0.00  0.00    +0.000 OA
ENDBRANCH  23  24
ENDBRANCH   5  23
TORSDOF 8
ENDMDL
MODEL 4
REMARK VINA RESULT:      -6.7      1.418      1.500
REMARK  Name = 
REMARK  8 active torsions:
REMARK  status: ('A' for Active; 'I' for Inactive)
REMARK    1  A    between atoms: C_2  and  O_4
REMARK    2  A    between atoms: O_4  and  C_5
REMARK    3  A    between atoms: C_8  and  C_9
REMARK    4  A    between atoms: C_10  and  C_11
REMARK    5  A    between atoms: C_13  and  O_14
REMARK    6  A    between atoms: O_14  and  C_15
REMARK    7  A    between atoms: C_19  and  O_20
REMARK    8  A    between atoms: O_20  and  C_21
REMARK                            x       y       z     vdW  Elec       q    Type
REMARK                         _______ _______ _______ _____ _____    ______ ____
ROOT
ATOM      1  C   UNL     1      36.712  54.970  59.746  0.00  0.00    +0.000 A 
ATOM      2  C   UNL     1      38.034  54.695  59.977  0.00  0.00    +0.000 A 
ATOM      3  C   UNL     1      38.445  53.716  60.874  0.00  0.00    +0.000 A 
ATOM      4  C   UNL     1      37.445  53.015  61.538  0.00  0.00    +0.000 A 
ATOM      5  C   UNL     1      36.113  53.260  61.334  0.00  0.00    +0.000 A 
ATOM      6  C   UNL     1      35.768  54.245  60.432  0.00  0.00    +0.000 A 
ENDROOT
BRANCH   1   8
ATOM      7  C   UNL     1      36.441  55.965  57.524  0.00  0.00    +0.000 C 
ATOM      8  C   UNL     1      36.240  55.988  58.814  0.00  0.00    +0.000 C 
BRANCH   7  12
ATOM      9  C   UNL     1      34.979  59.031  54.925  0.00  0.00    +0.000 A 
ATOM     10  C   UNL     1      34.574  58.901  56.232  0.00  0.00    +0.000 A 
ATOM     11  C   UNL     1      35.035  57.921  57.079  0.00  0.00    +0.000 A 
ATOM     12  C   UNL     1      35.948  57.012  56.619  0.00  0.00    +0.000 A 
ATOM     13  C   UNL     1      36.380  57.104  55.320  0.00  0.00    +0.000 A 
ATOM     14  C   UNL     1      35.899  58.103  54.487  0.00  0.00    +0.000 A 
BRANCH   9  15
ATOM     15  O   UNL     1      34.527  60.009  54.059  0.00  0.00    +0.000 OA
BRANCH  15  17
ATOM     16  C   UNL     1      34.138  62.444  54.611  0.00  0.00    +0.000 C 
ATOM     17  C   UNL     1      34.993  61.316  54.123  0.00  0.00    +0.000 C 
ATOM     18  O   UNL     1      36.190  61.507  53.744  0.00  0.00    +0.000 OA
ENDBRANCH  15  17
ENDBRANCH   9  15
ENDBRANCH   7  12
ENDBRANCH   1   8
BRANCH   3  19
ATOM     19  O   UNL     1      39.796  53.467  61.082  0.00  0.00    +0.000 OA
BRANCH  19  20
ATOM     20  C   UNL     1      40.639  52.991  60.099  0.00  0.00    +0.000 C 
ATOM     21  C   UNL     1      40.682  51.535  59.832  0.00  0.00    +0.000 C 
ATOM     22  O   UNL     1      41.354  53.803  59.453  0.00  0.00    +0.000 OA
ENDBRANCH  19  20
ENDBRANCH   3  19
BRANCH   5  23
ATOM     23  O   UNL     1      35.090  52.579  61.980  0.00  0.00    +0.000 OA
BRANCH  23  24
ATOM     24  C   UNL     1      35.072  51.193  61.982  0.00  0.00    +0.000 C 
ATOM     25  C   UNL     1      34.951  50.406  60.712  0.00  0.00    +0.000 C 
ATOM     26  O   UNL     1      35.162  50.608  63.086  0.00  0.00    +0.000 OA
ENDBRANCH  23  24
ENDBRANCH   5  23
TORSDOF 8
ENDMDL
MODEL 5
REMARK VINA RESULT:      -6.5      2.458      9.966
REMARK  Name = 
REMARK  8 active torsions:
REMARK  status: ('A' for Active; 'I' for Inactive)
REMARK    1  A    between atoms: C_2  and  O_4
REMARK    2  A    between atoms: O_4  and  C_5
REMARK    3  A    between atoms: C_8  and  C_9
REMARK    4  A    between atoms: C_10  and  C_11
REMARK    5  A    between atoms: C_13  and  O_14
REMARK    6  A    between atoms: O_14  and  C_15
REMARK    7  A    between atoms: C_19  and  O_20
REMARK    8  A    between atoms: O_20  and  C_21
REMARK                            x       y       z     vdW  Elec       q    Type
REMARK                         _______ _______ _______ _____ _____    ______ ____
ROOT
ATOM      1  C   UNL     1      33.899  58.677  56.986  0.00  0.00    +0.000 A 
ATOM      2  C   UNL     1      32.722  59.312  57.285  0.00  0.00    +0.000 A 
ATOM      3  C   UNL     1      32.064  60.128  56.373  0.00  0.00    +0.000 A 
ATOM      4  C   UNL     1      32.657  60.277  55.124  0.00  0.00    +0.000 A 
ATOM      5  C   UNL     1      33.832  59.658  54.787  0.00  0.00    +0.000 A 
ATOM      6  C   UNL     1      34.438  58.862  55.737  0.00  0.00    +0.000 A 
ENDROOT
BRANCH   1   8
ATOM      7  C   UNL     1      35.790  57.282  57.680  0.00  0.00    +0.000 C 
ATOM      8  C   UNL     1      34.620  57.814  57.915  0.00  0.00    +0.000 C 
BRANCH   7  12
ATOM      9  C   UNL     1      37.811  54.726  60.449  0.00  0.00    +0.000 A 
ATOM     10  C   UNL     1      37.476  54.334  59.175  0.00  0.00    +0.000 A 
ATOM     11  C   UNL     1      36.827  55.144  58.275  0.00  0.00    +0.000 A 
ATOM     12  C   UNL     1      36.484  56.417  58.643  0.00  0.00    +0.000 A 
ATOM     13  C   UNL     1      36.799  56.850  59.907  0.00  0.00    +0.000 A 
ATOM     14  C   UNL     1      37.455  56.012  60.795  0.00  0.00    +0.000 A 
BRANCH   9  15
ATOM     15  O   UNL     1      38.464  53.926  61.368  0.00  0.00    +0.000 OA
BRANCH  15  17
ATOM     16  C   UNL     1      40.216  52.105  61.385  0.00  0.00    +0.000 C 
ATOM     17  C   UNL     1      39.780  53.524  61.185  0.00  0.00    +0.000 C 
ATOM     18  O   UNL     1      40.603  54.426  60.836  0.00  0.00    +0.000 OA
ENDBRANCH  15  17
ENDBRANCH   9  15
ENDBRANCH   7  12
ENDBRANCH   1   8
BRANCH   3  19
ATOM     19  O   UNL     1      30.872  60.756  56.714  0.00  0.00    +0.000 OA
BRANCH  19  20
ATOM     20  C   UNL     1      29.881  60.149  57.457  0.00  0.00    +0.000 C 
ATOM     21  C   UNL     1      28.999  59.156  56.803  0.00  0.00    +0.000 C 
ATOM     22  O   UNL     1      29.747  60.453  58.672  0.00  0.00    +0.000 OA
ENDBRANCH  19  20
ENDBRANCH   3  19
BRANCH   5  23
ATOM     23  O   UNL     1      34.450  59.785  53.551  0.00  0.00    +0.000 OA
BRANCH  23  24
ATOM     24  C   UNL     1      35.827  59.935  53.475  0.00  0.00    +0.000 C 
ATOM     25  C   UNL     1      36.723  58.789  53.115  0.00  0.00    +0.000 C 
ATOM     26  O   UNL     1      36.307  61.066  53.716  0.00  0.00    +0.000 OA
ENDBRANCH  23  24
ENDBRANCH   5  23
TORSDOF 8
ENDMDL
MODEL 6
REMARK VINA RESULT:      -6.4     11.601     14.560
REMARK  Name = 
REMARK  8 active torsions:
REMARK  status: ('A' for Active; 'I' for Inactive)
REMARK    1  A    between atoms: C_2  and  O_4
REMARK    2  A    between atoms: O_4  and  C_5
REMARK    3  A    between atoms: C_8  and  C_9
REMARK    4  A    between atoms: C_10  and  C_11
REMARK    5  A    between atoms: C_13  and  O_14
REMARK    6  A    between atoms: O_14  and  C_15
REMARK    7  A    between atoms: C_19  and  O_20
REMARK    8  A    between atoms: O_20  and  C_21
REMARK                            x       y       z     vdW  Elec       q    Type
REMARK                         _______ _______ _______ _____ _____    ______ ____
ROOT
ATOM      1  C   UNL     1      30.552  44.062  61.398  0.00  0.00    +0.000 A 
ATOM      2  C   UNL     1      30.079  45.088  62.173  0.00  0.00    +0.000 A 
ATOM      3  C   UNL     1      28.792  45.093  62.698  0.00  0.00    +0.000 A 
ATOM      4  C   UNL     1      27.991  43.996  62.400  0.00  0.00    +0.000 A 
ATOM      5  C   UNL     1      28.428  42.951  61.630  0.00  0.00    +0.000 A 
ATOM      6  C   UNL     1      29.715  43.006  61.137  0.00  0.00    +0.000 A 
ENDROOT
BRANCH   1   8
ATOM      7  C   UNL     1      32.205  43.446  59.698  0.00  0.00    +0.000 C 
ATOM      8  C   UNL     1      31.895  44.020  60.829  0.00  0.00    +0.000 C 
BRANCH   7  12
ATOM      9  C   UNL     1      36.201  43.380  58.175  0.00  0.00    +0.000 A 
ATOM     10  C   UNL     1      35.906  43.245  59.511  0.00  0.00    +0.000 A 
ATOM     11  C   UNL     1      34.627  43.264  60.015  0.00  0.00    +0.000 A 
ATOM     12  C   UNL     1      33.571  43.426  59.159  0.00  0.00    +0.000 A 
ATOM     13  C   UNL     1      33.820  43.565  57.816  0.00  0.00    +0.000 A 
ATOM     14  C   UNL     1      35.120  43.541  57.335  0.00  0.00    +0.000 A 
BRANCH   9  15
ATOM     15  O   UNL     1      37.479  43.363  57.650  0.00  0.00    +0.000 OA
BRANCH  15  17
ATOM     16  C   UNL     1      39.544  43.965  58.977  0.00  0.00    +0.000 C 
ATOM     17  C   UNL     1      38.437  44.296  58.024  0.00  0.00    +0.000 C 
ATOM     18  O   UNL     1      38.326  45.454  57.513  0.00  0.00    +0.000 OA
ENDBRANCH  15  17
ENDBRANCH   9  15
ENDBRANCH   7  12
ENDBRANCH   1   8
BRANCH   3  19
ATOM     19  O   UNL     1      28.348  46.152  63.479  0.00  0.00    +0.000 OA
BRANCH  19  20
ATOM     20  C   UNL     1      27.297  46.970  63.120  0.00  0.00    +0.000 C 
ATOM     21  C   UNL     1      27.345  47.672  61.818  0.00  0.00    +0.000 C 
ATOM     22  O   UNL     1      26.322  47.103  63.908  0.00  0.00    +0.000 OA
ENDBRANCH  19  20
ENDBRANCH   3  19
BRANCH   5  23
ATOM     23  O   UNL     1      27.655  41.842  61.314  0.00  0.00    +0.000 OA
BRANCH  23  24
ATOM     24  C   UNL     1      27.068  41.094  62.324  0.00  0.00    +0.000 C 
ATOM     25  C   UNL     1      27.875  40.534  63.456  0.00  0.00    +0.000 C 
ATOM     26  O   UNL     1      25.832  40.898  62.265  0.00  0.00    +0.000 OA
ENDBRANCH  23  24
ENDBRANCH   5  23
TORSDOF 8
ENDMDL
MODEL 7
REMARK VINA RESULT:      -6.3     11.353     14.468
REMARK  Name = 
REMARK  8 active torsions:
REMARK  status: ('A' for Active; 'I' for Inactive)
REMARK    1  A    between atoms: C_2  and  O_4
REMARK    2  A    between atoms: O_4  and  C_5
REMARK    3  A    between atoms: C_8  and  C_9
REMARK    4  A    between atoms: C_10  and  C_11
REMARK    5  A    between atoms: C_13  and  O_14
REMARK    6  A    between atoms: O_14  and  C_15
REMARK    7  A    between atoms: C_19  and  O_20
REMARK    8  A    between atoms: O_20  and  C_21
REMARK                            x       y       z     vdW  Elec       q    Type
REMARK                         _______ _______ _______ _____ _____    ______ ____
ROOT
ATOM      1  C   UNL     1      30.658  44.309  61.572  0.00  0.00    +0.000 A 
ATOM      2  C   UNL     1      29.728  43.307  61.661  0.00  0.00    +0.000 A 
ATOM      3  C   UNL     1      28.475  43.502  62.229  0.00  0.00    +0.000 A 
ATOM      4  C   UNL     1      28.198  44.776  62.712  0.00  0.00    +0.000 A 
ATOM      5  C   UNL     1      29.102  45.804  62.642  0.00  0.00    +0.000 A 
ATOM      6  C   UNL     1      30.329  45.546  62.067  0.00  0.00    +0.000 A 
ENDROOT
BRANCH   1   8
ATOM      7  C   UNL     1      32.215  43.622  59.809  0.00  0.00    +0.000 C 
ATOM      8  C   UNL     1      31.983  44.144  60.984  0.00  0.00    +0.000 C 
BRANCH   7  12
ATOM      9  C   UNL     1      36.129  43.196  58.140  0.00  0.00    +0.000 A 
ATOM     10  C   UNL     1      35.002  43.369  57.373  0.00  0.00    +0.000 A 
ATOM     11  C   UNL     1      33.738  43.508  57.894  0.00  0.00    +0.000 A 
ATOM     12  C   UNL     1      33.565  43.474  59.251  0.00  0.00    +0.000 A 
ATOM     13  C   UNL     1      34.663  43.302  60.057  0.00  0.00    +0.000 A 
ATOM     14  C   UNL     1      35.928  43.165  59.503  0.00  0.00    +0.000 A 
BRANCH   9  15
ATOM     15  O   UNL     1      37.407  43.055  57.634  0.00  0.00    +0.000 OA
BRANCH  15  17
ATOM     16  C   UNL     1      39.639  43.565  58.704  0.00  0.00    +0.000 C 
ATOM     17  C   UNL     1      38.417  43.960  57.933  0.00  0.00    +0.000 C 
ATOM     18  O   UNL     1      38.251  45.148  57.516  0.00  0.00    +0.000 OA
ENDBRANCH  15  17
ENDBRANCH   9  15
ENDBRANCH   7  12
ENDBRANCH   1   8
BRANCH   3  19
ATOM     19  O   UNL     1      27.559  42.460  62.302  0.00  0.00    +0.000 OA
BRANCH  19  20
ATOM     20  C   UNL     1      26.913  41.941  61.199  0.00  0.00    +0.000 C 
ATOM     21  C   UNL     1      25.825  42.723  60.569  0.00  0.00    +0.000 C 
ATOM     22  O   UNL     1      27.260  40.814  60.754  0.00  0.00    +0.000 OA
ENDBRANCH  19  20
ENDBRANCH   3  19
BRANCH   5  23
ATOM     23  O   UNL     1      28.857  47.086  63.113  0.00  0.00    +0.000 OA
BRANCH  23  24
ATOM     24  C   UNL     1      28.263  48.029  62.287  0.00  0.00    +0.000 C 
ATOM     25  C   UNL     1      26.774  48.117  62.141  0.00  0.00    +0.000 C 
ATOM     26  O   UNL     1      29.012  48.813  61.661  0.00  0.00    +0.000 OA
ENDBRANCH  23  24
ENDBRANCH   5  23
TORSDOF 8
ENDMDL
MODEL 8
REMARK VINA RESULT:      -6.3      1.355      1.538
REMARK  Name = 
REMARK  8 active torsions:
REMARK  status: ('A' for Active; 'I' for Inactive)
REMARK    1  A    between atoms: C_2  and  O_4
REMARK    2  A    between atoms: O_4  and  C_5
REMARK    3  A    between atoms: C_8  and  C_9
REMARK    4  A    between atoms: C_10  and  C_11
REMARK    5  A    between atoms: C_13  and  O_14
REMARK    6  A    between atoms: O_14  and  C_15
REMARK    7  A    between atoms: C_19  and  O_20
REMARK    8  A    between atoms: O_20  and  C_21
REMARK                            x       y       z     vdW  Elec       q    Type
REMARK                         _______ _______ _______ _____ _____    ______ ____
ROOT
ATOM      1  C   UNL     1      36.384  54.543  59.730  0.00  0.00    +0.000 A 
ATOM      2  C   UNL     1      37.738  54.401  59.882  0.00  0.00    +0.000 A 
ATOM      3  C   UNL     1      38.297  53.555  60.832  0.00  0.00    +0.000 A 
ATOM      4  C   UNL     1      37.412  52.846  61.637  0.00  0.00    +0.000 A 
ATOM      5  C   UNL     1      36.052  52.960  61.515  0.00  0.00    +0.000 A 
ATOM      6  C   UNL     1      35.559  53.818  60.553  0.00  0.00    +0.000 A 
ENDROOT
BRANCH   1   8
ATOM      7  C   UNL     1      36.275  56.541  58.317  0.00  0.00    +0.000 C 
ATOM      8  C   UNL     1      35.760  55.420  58.746  0.00  0.00    +0.000 C 
BRANCH   7  12
ATOM      9  C   UNL     1      34.315  59.046  55.458  0.00  0.00    +0.000 A 
ATOM     10  C   UNL     1      33.878  58.904  56.754  0.00  0.00    +0.000 A 
ATOM     11  C   UNL     1      34.497  58.103  57.683  0.00  0.00    +0.000 A 
ATOM     12  C   UNL     1      35.613  57.397  57.323  0.00  0.00    +0.000 A 
ATOM     13  C   UNL     1      36.084  57.509  56.039  0.00  0.00    +0.000 A 
ATOM     14  C   UNL     1      35.440  58.325  55.121  0.00  0.00    +0.000 A 
BRANCH   9  15
ATOM     15  O   UNL     1      33.705  59.847  54.510  0.00  0.00    +0.000 OA
BRANCH  15  17
ATOM     16  C   UNL     1      31.291  60.496  54.876  0.00  0.00    +0.000 C 
ATOM     17  C   UNL     1      32.757  60.800  54.857  0.00  0.00    +0.000 C 
ATOM     18  O   UNL     1      33.199  61.952  55.158  0.00  0.00    +0.000 OA
ENDBRANCH  15  17
ENDBRANCH   9  15
ENDBRANCH   7  12
ENDBRANCH   1   8
BRANCH   3  19
ATOM     19  O   UNL     1      39.676  53.439  60.956  0.00  0.00    +0.000 OA
BRANCH  19  20
ATOM     20  C   UNL     1      40.386  53.940  62.028  0.00  0.00    +0.000 C 
ATOM     21  C   UNL     1      40.151  55.338  62.454  0.00  0.00    +0.000 C 
ATOM     22  O   UNL     1      41.217  53.199  62.618  0.00  0.00    +0.000 OA
ENDBRANCH  19  20
ENDBRANCH   3  19
BRANCH   5  23
ATOM     23  O   UNL     1      35.141  52.268  62.301  0.00  0.00    +0.000 OA
BRANCH  23  24
ATOM     24  C   UNL     1      35.134  50.881  62.297  0.00  0.00    +0.000 C 
ATOM     25  C   UNL     1      34.939  50.100  61.033  0.00  0.00    +0.000 C 
ATOM     26  O   UNL     1      35.297  50.291  63.390  0.00  0.00    +0.000 OA
ENDBRANCH  23  24
ENDBRANCH   5  23
TORSDOF 8
ENDMDL
MODEL 9
REMARK VINA RESULT:      -6.3      7.556     12.581
REMARK  Name = 
REMARK  8 active torsions:
REMARK  status: ('A' for Active; 'I' for Inactive)
REMARK    1  A    between atoms: C_2  and  O_4
REMARK    2  A    between atoms: O_4  and  C_5
REMARK    3  A    between atoms: C_8  and  C_9
REMARK    4  A    between atoms: C_10  and  C_11
REMARK    5  A    between atoms: C_13  and  O_14
REMARK    6  A    between atoms: O_14  and  C_15
REMARK    7  A    between atoms: C_19  and  O_20
REMARK    8  A    between atoms: O_20  and  C_21
REMARK                            x       y       z     vdW  Elec       q    Type
REMARK                         _______ _______ _______ _____ _____    ______ ____
ROOT
ATOM      1  C   UNL     1      30.370  46.317  62.234  0.00  0.00    +0.000 A 
ATOM      2  C   UNL     1      30.326  44.949  62.185  0.00  0.00    +0.000 A 
ATOM      3  C   UNL     1      29.144  44.235  62.338  0.00  0.00    +0.000 A 
ATOM      4  C   UNL     1      27.987  44.978  62.545  0.00  0.00    +0.000 A 
ATOM      5  C   UNL     1      27.989  46.347  62.600  0.00  0.00    +0.000 A 
ATOM      6  C   UNL     1      29.196  46.997  62.442  0.00  0.00    +0.000 A 
ENDROOT
BRANCH   1   8
ATOM      7  C   UNL     1      32.787  46.684  62.391  0.00  0.00    +0.000 C 
ATOM      8  C   UNL     1      31.590  47.102  62.079  0.00  0.00    +0.000 C 
BRANCH   7  12
ATOM      9  C   UNL     1      36.322  49.042  61.910  0.00  0.00    +0.000 A 
ATOM     10  C   UNL     1      36.334  47.775  62.443  0.00  0.00    +0.000 A 
ATOM     11  C   UNL     1      35.207  47.005  62.603  0.00  0.00    +0.000 A 
ATOM     12  C   UNL     1      33.992  47.507  62.220  0.00  0.00    +0.000 A 
ATOM     13  C   UNL     1      33.934  48.769  61.683  0.00  0.00    +0.000 A 
ATOM     14  C   UNL     1      35.087  49.523  61.532  0.00  0.00    +0.000 A 
BRANCH   9  15
ATOM     15  O   UNL     1      37.445  49.831  61.741  0.00  0.00    +0.000 OA
BRANCH  15  17
ATOM     16  C   UNL     1      39.048  48.790  60.089  0.00  0.00    +0.000 C 
ATOM     17  C   UNL     1      38.127  49.884  60.533  0.00  0.00    +0.000 C 
ATOM     18  O   UNL     1      37.930  50.915  59.818  0.00  0.00    +0.000 OA
ENDBRANCH  15  17
ENDBRANCH   9  15
ENDBRANCH   7  12
ENDBRANCH   1   8
BRANCH   3  19
ATOM     19  O   UNL     1      29.141  42.847  62.283  0.00  0.00    +0.000 OA
BRANCH  19  20
ATOM     20  C   UNL     1      28.256  42.121  61.512  0.00  0.00    +0.000 C 
ATOM     21  C   UNL     1      27.257  41.260  62.185  0.00  0.00    +0.000 C 
ATOM     22  O   UNL     1      28.319  42.205  60.256  0.00  0.00    +0.000 OA
ENDBRANCH  19  20
ENDBRANCH   3  19
BRANCH   5  23
ATOM     23  O   UNL     1      26.854  47.118  62.805  0.00  0.00    +0.000 OA
BRANCH  23  24
ATOM     24  C   UNL     1      26.359  47.298  64.088  0.00  0.00    +0.000 C 
ATOM     25  C   UNL     1      25.241  48.256  64.372  0.00  0.00    +0.000 C 
ATOM     26  O   UNL     1      26.875  46.631  65.014  0.00  0.00    +0.000 OA
ENDBRANCH  23  24
ENDBRANCH   5  23
TORSDOF 8
ENDMDL
MODEL 10
REMARK VINA RESULT:      -6.2      2.320     10.076
REMARK  Name = 
REMARK  8 active torsions:
REMARK  status: ('A' for Active; 'I' for Inactive)
REMARK    1  A    between atoms: C_2  and  O_4
REMARK    2  A    between atoms: O_4  and  C_5
REMARK    3  A    between atoms: C_8  and  C_9
REMARK    4  A    between atoms: C_10  and  C_11
REMARK    5  A    between atoms: C_13  and  O_14
REMARK    6  A    between atoms: O_14  and  C_15
REMARK    7  A    between atoms: C_19  and  O_20
REMARK    8  A    between atoms: O_20  and  C_21
REMARK                            x       y       z     vdW  Elec       q    Type
REMARK                         _______ _______ _______ _____ _____    ______ ____
ROOT
ATOM      1  C   UNL     1      34.188  58.393  57.243  0.00  0.00    +0.000 A 
ATOM      2  C   UNL     1      33.144  59.116  57.754  0.00  0.00    +0.000 A 
ATOM      3  C   UNL     1      32.435  60.040  56.996  0.00  0.00    +0.000 A 
ATOM      4  C   UNL     1      32.835  60.202  55.674  0.00  0.00    +0.000 A 
ATOM      5  C   UNL     1      33.874  59.497  55.125  0.00  0.00    +0.000 A 
ATOM      6  C   UNL     1      34.539  58.596  55.931  0.00  0.00    +0.000 A 
ENDROOT
BRANCH   1   8
ATOM      7  C   UNL     1      34.572  56.887  59.137  0.00  0.00    +0.000 C 
ATOM      8  C   UNL     1      34.957  57.415  58.006  0.00  0.00    +0.000 C 
BRANCH   7  12
ATOM      9  C   UNL     1      36.874  53.997  61.290  0.00  0.00    +0.000 A 
ATOM     10  C   UNL     1      35.549  53.814  60.973  0.00  0.00    +0.000 A 
ATOM     11  C   UNL     1      34.797  54.733  60.282  0.00  0.00    +0.000 A 
ATOM     12  C   UNL     1      35.376  55.905  59.876  0.00  0.00    +0.000 A 
ATOM     13  C   UNL     1      36.697  56.130  60.172  0.00  0.00    +0.000 A 
ATOM     14  C   UNL     1      37.433  55.184  60.871  0.00  0.00    +0.000 A 
BRANCH   9  15
ATOM     15  O   UNL     1      37.646  53.084  61.984  0.00  0.00    +0.000 OA
BRANCH  15  17
ATOM     16  C   UNL     1      38.029  51.062  60.518  0.00  0.00    +0.000 C 
ATOM     17  C   UNL     1      37.533  51.717  61.770  0.00  0.00    +0.000 C 
ATOM     18  O   UNL     1      36.983  51.044  62.697  0.00  0.00    +0.000 OA
ENDBRANCH  15  17
ENDBRANCH   9  15
ENDBRANCH   7  12
ENDBRANCH   1   8
BRANCH   3  19
ATOM     19  O   UNL     1      31.382  60.755  57.550  0.00  0.00    +0.000 OA
BRANCH  19  20
ATOM     20  C   UNL     1      30.122  60.807  56.990  0.00  0.00    +0.000 C 
ATOM     21  C   UNL     1      29.391  59.543  56.749  0.00  0.00    +0.000 C 
ATOM     22  O   UNL     1      29.623  61.926  56.696  0.00  0.00    +0.000 OA
ENDBRANCH  19  20
ENDBRANCH   3  19
BRANCH   5  23
ATOM     23  O   UNL     1      34.299  59.635  53.811  0.00  0.00    +0.000 OA
BRANCH  23  24
ATOM     24  C   UNL     1      35.633  59.897  53.536  0.00  0.00    +0.000 C 
ATOM     25  C   UNL     1      36.561  58.823  53.055  0.00  0.00    +0.000 C 
ATOM     26  O   UNL     1      36.046  61.068  53.700  0.00  0.00    +0.000 OA
ENDBRANCH  23  24
ENDBRANCH   5  23
TORSDOF 8
ENDMDL
