REMARK  Name = 
REMARK  7 active torsions:
REMARK  status: ('A' for Active; 'I' for Inactive)
REMARK    1  A    between atoms: O_2  and  C_3
REMARK    2  A    between atoms: C_5  and  C_6
REMARK    3  A    between atoms: C_7  and  O_8
REMARK    4  A    between atoms: C_7  and  C_12
REMARK    5  A    between atoms: O_8  and  C_9
REMARK    6  A    between atoms: C_22  and  O_23
REMARK    7  A    between atoms: C_25  and  O_26
REMARK                            x       y       z     vdW  Elec       q    Type
REMARK                         _______ _______ _______ _____ _____    ______ ____
ROOT
ATOM      1  C   UNL     1      -0.065   2.178  -0.028  0.00  0.00    +0.000 C 
ATOM      2  C   UNL     1      -1.317   1.941  -0.271  0.00  0.00    +0.000 C 
ENDROOT
BRANCH   2   3
ATOM      3  C   UNL     1      -1.784   0.587  -0.497  0.00  0.00    +0.000 A 
ATOM      4  C   UNL     1      -3.136   0.421  -0.832  0.00  0.00    +0.000 A 
ATOM      5  C   UNL     1      -3.639  -0.845  -1.027  0.00  0.00    +0.000 A 
ATOM      6  C   UNL     1      -2.843  -1.984  -0.901  0.00  0.00    +0.000 A 
ATOM      7  C   UNL     1      -1.517  -1.838  -0.573  0.00  0.00    +0.000 A 
ATOM      8  C   UNL     1      -1.049  -0.558  -0.387  0.00  0.00    +0.000 A 
ATOM      9  O   UNL     1      -0.904  -3.072  -0.497  0.00  0.00    +0.000 OA
ATOM     10  C   UNL     1      -1.947  -4.056  -0.500  0.00  0.00    +0.000 C 
ATOM     11  O   UNL     1      -3.057  -3.348  -1.031  0.00  0.00    +0.000 OA
ENDBRANCH   2   3
BRANCH   1  14
ATOM     12  C   UNL     1       2.880   0.348   1.302  0.00  0.00    +0.000 A 
ATOM     13  C   UNL     1       1.808   1.190   1.185  0.00  0.00    +0.000 A 
ATOM     14  C   UNL     1       1.002   1.231   0.040  0.00  0.00    +0.000 A 
ATOM     15  C   UNL     1       1.385   0.350  -0.957  0.00  0.00    +0.000 A 
ATOM     16  C   UNL     1       2.447  -0.509  -0.888  0.00  0.00    +0.000 A 
ATOM     17  C   UNL     1       3.191  -0.490   0.273  0.00  0.00    +0.000 A 
BRANCH  12  19
ATOM     18  C   UNL     1       3.311   1.228   3.530  0.00  0.00    +0.000 C 
ATOM     19  O   UNL     1       3.633   0.363   2.466  0.00  0.00    +0.000 OA
ENDBRANCH  12  19
BRANCH  16  20
ATOM     20  O   UNL     1       2.806  -1.379  -1.902  0.00  0.00    +0.000 OA
ATOM     21  C   UNL     1       2.030  -1.396  -3.105  0.00  0.00    +0.000 C 
ENDBRANCH  16  20
BRANCH  17  22
ATOM     22  O   UNL     1       4.268  -1.341   0.383  0.00  0.00    +0.000 OA
ATOM     23  C   UNL     1       4.154  -2.652   0.907  0.00  0.00    +0.000 C 
ENDBRANCH  17  22
ENDBRANCH   1  14
BRANCH   2  24
ATOM     24  O   UNL     1      -2.257   3.009  -0.312  0.00  0.00    +0.000 OA
BRANCH  24  25
ATOM     25  C   UNL     1      -2.892   3.373   0.858  0.00  0.00    +0.000 C 
ATOM     26  C   UNL     1      -3.878   4.494   0.821  0.00  0.00    +0.000 C 
ATOM     27  O   UNL     1      -2.631   2.755   1.943  0.00  0.00    +0.000 OA
ENDBRANCH  24  25
ENDBRANCH   2  24
TORSDOF 7
