MODEL 1
REMARK VINA RESULT:      -6.1      0.000      0.000
REMARK  Name = 
REMARK  4 active torsions:
REMARK  status: ('A' for Active; 'I' for Inactive)
REMARK    1  A    between atoms: O_2  and  C_3
REMARK    2  A    between atoms: C_5  and  C_6
REMARK    3  A    between atoms: C_7  and  C_8
REMARK    4  A    between atoms: C_16  and  O_17
REMARK                            x       y       z     vdW  Elec       q    Type
REMARK                         _______ _______ _______ _____ _____    ______ ____
ROOT
ATOM      1  C   UNL     1      35.523  58.107  55.600  0.00  0.00    +0.000 A 
ATOM      2  C   UNL     1      36.226  57.702  56.693  0.00  0.00    +0.000 A 
ATOM      3  C   UNL     1      35.718  57.867  58.015  0.00  0.00    +0.000 A 
ATOM      4  C   UNL     1      34.513  58.446  58.060  0.00  0.00    +0.000 A 
ATOM      5  C   UNL     1      33.787  58.863  56.984  0.00  0.00    +0.000 A 
ATOM      6  C   UNL     1      34.294  58.694  55.733  0.00  0.00    +0.000 A 
ENDROOT
BRANCH   1   8
ATOM      7  C   UNL     1      35.593  58.762  53.250  0.00  0.00    +0.000 C 
ATOM      8  O   UNL     1      36.028  57.941  54.317  0.00  0.00    +0.000 OA
ENDBRANCH   1   8
BRANCH   3   9
ATOM      9  C   UNL     1      36.617  57.375  58.981  0.00  0.00    +0.000 C 
ATOM     10  C   UNL     1      36.558  56.302  59.612  0.00  0.00    +0.000 C 
BRANCH  10  11
ATOM     11  C   UNL     1      35.529  55.330  59.470  0.00  0.00    +0.000 A 
ATOM     12  C   UNL     1      34.311  55.197  59.991  0.00  0.00    +0.000 A 
ATOM     13  C   UNL     1      33.454  54.177  59.732  0.00  0.00    +0.000 A 
ATOM     14  C   UNL     1      33.813  53.173  58.874  0.00  0.00    +0.000 A 
ATOM     15  O   UNL     1      32.986  52.123  58.579  0.00  0.00    +0.000 OA
ATOM     16  C   UNL     1      35.063  53.256  58.304  0.00  0.00    +0.000 A 
ATOM     17  C   UNL     1      35.907  54.299  58.585  0.00  0.00    +0.000 A 
ENDBRANCH  10  11
ENDBRANCH   3   9
BRANCH   5  18
ATOM     18  O   UNL     1      32.544  59.449  57.203  0.00  0.00    +0.000 OA
ATOM     19  C   UNL     1      31.977  60.298  56.223  0.00  0.00    +0.000 C 
ENDBRANCH   5  18
TORSDOF 4
ENDMDL
MODEL 2
REMARK VINA RESULT:      -6.0      0.223      2.706
REMARK  Name = 
REMARK  4 active torsions:
REMARK  status: ('A' for Active; 'I' for Inactive)
REMARK    1  A    between atoms: O_2  and  C_3
REMARK    2  A    between atoms: C_5  and  C_6
REMARK    3  A    between atoms: C_7  and  C_8
REMARK    4  A    between atoms: C_16  and  O_17
REMARK                            x       y       z     vdW  Elec       q    Type
REMARK                         _______ _______ _______ _____ _____    ______ ____
ROOT
ATOM      1  C   UNL     1      33.930  58.735  57.155  0.00  0.00    +0.000 A 
ATOM      2  C   UNL     1      34.677  58.308  58.211  0.00  0.00    +0.000 A 
ATOM      3  C   UNL     1      35.951  57.694  58.027  0.00  0.00    +0.000 A 
ATOM      4  C   UNL     1      36.317  57.586  56.746  0.00  0.00    +0.000 A 
ATOM      5  C   UNL     1      35.591  58.003  55.670  0.00  0.00    +0.000 A 
ATOM      6  C   UNL     1      34.379  58.586  55.871  0.00  0.00    +0.000 A 
ENDROOT
BRANCH   1   8
ATOM      7  C   UNL     1      32.262  60.401  56.523  0.00  0.00    +0.000 C 
ATOM      8  O   UNL     1      32.691  59.332  57.345  0.00  0.00    +0.000 OA
ENDBRANCH   1   8
BRANCH   3   9
ATOM      9  C   UNL     1      36.536  57.337  59.258  0.00  0.00    +0.000 C 
ATOM     10  C   UNL     1      36.441  56.256  59.872  0.00  0.00    +0.000 C 
BRANCH  10  11
ATOM     11  C   UNL     1      35.694  55.131  59.427  0.00  0.00    +0.000 A 
ATOM     12  C   UNL     1      35.944  54.140  58.573  0.00  0.00    +0.000 A 
ATOM     13  C   UNL     1      35.087  53.132  58.268  0.00  0.00    +0.000 A 
ATOM     14  C   UNL     1      33.852  53.073  58.855  0.00  0.00    +0.000 A 
ATOM     15  O   UNL     1      32.953  52.079  58.583  0.00  0.00    +0.000 OA
ATOM     16  C   UNL     1      33.537  54.072  59.748  0.00  0.00    +0.000 A 
ATOM     17  C   UNL     1      34.423  55.077  60.035  0.00  0.00    +0.000 A 
ENDBRANCH  10  11
ENDBRANCH   3   9
BRANCH   5  18
ATOM     18  O   UNL     1      36.118  57.817  54.395  0.00  0.00    +0.000 OA
ATOM     19  C   UNL     1      35.744  58.683  53.340  0.00  0.00    +0.000 C 
ENDBRANCH   5  18
TORSDOF 4
ENDMDL
MODEL 3
REMARK VINA RESULT:      -5.7      1.986      6.223
REMARK  Name = 
REMARK  4 active torsions:
REMARK  status: ('A' for Active; 'I' for Inactive)
REMARK    1  A    between atoms: O_2  and  C_3
REMARK    2  A    between atoms: C_5  and  C_6
REMARK    3  A    between atoms: C_7  and  C_8
REMARK    4  A    between atoms: C_16  and  O_17
REMARK                            x       y       z     vdW  Elec       q    Type
REMARK                         _______ _______ _______ _____ _____    ______ ____
ROOT
ATOM      1  C   UNL     1      35.370  53.534  58.648  0.00  0.00    +0.000 A 
ATOM      2  C   UNL     1      34.907  54.789  58.898  0.00  0.00    +0.000 A 
ATOM      3  C   UNL     1      35.791  55.875  59.168  0.00  0.00    +0.000 A 
ATOM      4  C   UNL     1      37.083  55.534  59.149  0.00  0.00    +0.000 A 
ATOM      5  C   UNL     1      37.576  54.287  58.903  0.00  0.00    +0.000 A 
ATOM      6  C   UNL     1      36.713  53.268  58.648  0.00  0.00    +0.000 A 
ENDROOT
BRANCH   1   8
ATOM      7  C   UNL     1      33.110  52.613  58.610  0.00  0.00    +0.000 C 
ATOM      8  O   UNL     1      34.501  52.483  58.386  0.00  0.00    +0.000 OA
ENDBRANCH   1   8
BRANCH   3   9
ATOM      9  C   UNL     1      35.085  57.073  59.395  0.00  0.00    +0.000 C 
ATOM     10  C   UNL     1      34.825  57.980  58.582  0.00  0.00    +0.000 C 
BRANCH  10  11
ATOM     11  C   UNL     1      35.207  57.979  57.212  0.00  0.00    +0.000 A 
ATOM     12  C   UNL     1      36.162  57.357  56.524  0.00  0.00    +0.000 A 
ATOM     13  C   UNL     1      36.378  57.483  55.190  0.00  0.00    +0.000 A 
ATOM     14  C   UNL     1      35.580  58.301  54.435  0.00  0.00    +0.000 A 
ATOM     15  O   UNL     1      35.755  58.463  53.088  0.00  0.00    +0.000 OA
ATOM     16  C   UNL     1      34.574  58.971  55.093  0.00  0.00    +0.000 A 
ATOM     17  C   UNL     1      34.381  58.823  56.441  0.00  0.00    +0.000 A 
ENDBRANCH  10  11
ENDBRANCH   3   9
BRANCH   5  18
ATOM     18  O   UNL     1      38.956  54.099  58.920  0.00  0.00    +0.000 OA
ATOM     19  C   UNL     1      39.662  54.138  60.146  0.00  0.00    +0.000 C 
ENDBRANCH   5  18
TORSDOF 4
ENDMDL
MODEL 4
REMARK VINA RESULT:      -5.6      5.008      6.565
REMARK  Name = 
REMARK  4 active torsions:
REMARK  status: ('A' for Active; 'I' for Inactive)
REMARK    1  A    between atoms: O_2  and  C_3
REMARK    2  A    between atoms: C_5  and  C_6
REMARK    3  A    between atoms: C_7  and  C_8
REMARK    4  A    between atoms: C_16  and  O_17
REMARK                            x       y       z     vdW  Elec       q    Type
REMARK                         _______ _______ _______ _____ _____    ______ ____
ROOT
ATOM      1  C   UNL     1      40.261  53.045  58.817  0.00  0.00    +0.000 A 
ATOM      2  C   UNL     1      39.023  53.431  58.400  0.00  0.00    +0.000 A 
ATOM      3  C   UNL     1      38.204  54.294  59.185  0.00  0.00    +0.000 A 
ATOM      4  C   UNL     1      38.767  54.671  60.337  0.00  0.00    +0.000 A 
ATOM      5  C   UNL     1      40.002  54.301  60.780  0.00  0.00    +0.000 A 
ATOM      6  C   UNL     1      40.765  53.477  60.014  0.00  0.00    +0.000 A 
ENDROOT
BRANCH   1   8
ATOM      7  C   UNL     1      42.388  51.920  58.410  0.00  0.00    +0.000 C 
ATOM      8  O   UNL     1      41.051  52.204  58.045  0.00  0.00    +0.000 OA
ENDBRANCH   1   8
BRANCH   3   9
ATOM      9  C   UNL     1      36.971  54.554  58.553  0.00  0.00    +0.000 C 
ATOM     10  C   UNL     1      35.859  54.046  58.795  0.00  0.00    +0.000 C 
BRANCH  10  11
ATOM     11  C   UNL     1      35.613  53.067  59.797  0.00  0.00    +0.000 A 
ATOM     12  C   UNL     1      35.474  53.120  61.120  0.00  0.00    +0.000 A 
ATOM     13  C   UNL     1      35.238  52.055  61.927  0.00  0.00    +0.000 A 
ATOM     14  C   UNL     1      35.123  50.797  61.398  0.00  0.00    +0.000 A 
ATOM     15  O   UNL     1      34.885  49.692  62.167  0.00  0.00    +0.000 OA
ATOM     16  C   UNL     1      35.258  50.680  60.033  0.00  0.00    +0.000 A 
ATOM     17  C   UNL     1      35.496  51.775  59.244  0.00  0.00    +0.000 A 
ENDBRANCH  10  11
ENDBRANCH   3   9
BRANCH   5  18
ATOM     18  O   UNL     1      40.443  54.784  62.010  0.00  0.00    +0.000 OA
ATOM     19  C   UNL     1      39.744  55.834  62.651  0.00  0.00    +0.000 C 
ENDBRANCH   5  18
TORSDOF 4
ENDMDL
MODEL 5
REMARK VINA RESULT:      -5.6      4.747      6.860
REMARK  Name = 
REMARK  4 active torsions:
REMARK  status: ('A' for Active; 'I' for Inactive)
REMARK    1  A    between atoms: O_2  and  C_3
REMARK    2  A    between atoms: C_5  and  C_6
REMARK    3  A    between atoms: C_7  and  C_8
REMARK    4  A    between atoms: C_16  and  O_17
REMARK                            x       y       z     vdW  Elec       q    Type
REMARK                         _______ _______ _______ _____ _____    ______ ____
ROOT
ATOM      1  C   UNL     1      39.725  54.469  60.725  0.00  0.00    +0.000 A 
ATOM      2  C   UNL     1      38.489  54.864  60.311  0.00  0.00    +0.000 A 
ATOM      3  C   UNL     1      37.940  54.426  59.070  0.00  0.00    +0.000 A 
ATOM      4  C   UNL     1      38.747  53.611  58.381  0.00  0.00    +0.000 A 
ATOM      5  C   UNL     1      39.987  53.201  58.770  0.00  0.00    +0.000 A 
ATOM      6  C   UNL     1      40.489  53.632  59.958  0.00  0.00    +0.000 A 
ENDROOT
BRANCH   1   8
ATOM      7  C   UNL     1      40.866  53.994  62.830  0.00  0.00    +0.000 C 
ATOM      8  O   UNL     1      40.251  54.902  61.935  0.00  0.00    +0.000 OA
ENDBRANCH   1   8
BRANCH   3   9
ATOM      9  C   UNL     1      36.655  54.961  58.855  0.00  0.00    +0.000 C 
ATOM     10  C   UNL     1      35.556  54.495  59.214  0.00  0.00    +0.000 C 
BRANCH  10  11
ATOM     11  C   UNL     1      35.384  53.285  59.941  0.00  0.00    +0.000 A 
ATOM     12  C   UNL     1      35.469  52.966  61.231  0.00  0.00    +0.000 A 
ATOM     13  C   UNL     1      35.267  51.727  61.748  0.00  0.00    +0.000 A 
ATOM     14  C   UNL     1      34.946  50.679  60.928  0.00  0.00    +0.000 A 
ATOM     15  O   UNL     1      34.733  49.413  61.399  0.00  0.00    +0.000 OA
ATOM     16  C   UNL     1      34.844  50.949  59.582  0.00  0.00    +0.000 A 
ATOM     17  C   UNL     1      35.054  52.210  59.089  0.00  0.00    +0.000 A 
ENDBRANCH  10  11
ENDBRANCH   3   9
BRANCH   5  18
ATOM     18  O   UNL     1      40.701  52.348  57.933  0.00  0.00    +0.000 OA
ATOM     19  C   UNL     1      42.080  52.123  58.160  0.00  0.00    +0.000 C 
ENDBRANCH   5  18
TORSDOF 4
ENDMDL
MODEL 6
REMARK VINA RESULT:      -5.5      2.053      5.709
REMARK  Name = 
REMARK  4 active torsions:
REMARK  status: ('A' for Active; 'I' for Inactive)
REMARK    1  A    between atoms: O_2  and  C_3
REMARK    2  A    between atoms: C_5  and  C_6
REMARK    3  A    between atoms: C_7  and  C_8
REMARK    4  A    between atoms: C_16  and  O_17
REMARK                            x       y       z     vdW  Elec       q    Type
REMARK                         _______ _______ _______ _____ _____    ______ ____
ROOT
ATOM      1  C   UNL     1      37.784  54.140  59.110  0.00  0.00    +0.000 A 
ATOM      2  C   UNL     1      37.393  55.288  59.729  0.00  0.00    +0.000 A 
ATOM      3  C   UNL     1      36.017  55.606  59.918  0.00  0.00    +0.000 A 
ATOM      4  C   UNL     1      35.179  54.682  59.436  0.00  0.00    +0.000 A 
ATOM      5  C   UNL     1      35.540  53.526  58.812  0.00  0.00    +0.000 A 
ATOM      6  C   UNL     1      36.860  53.244  58.643  0.00  0.00    +0.000 A 
ENDROOT
BRANCH   1   8
ATOM      7  C   UNL     1      39.531  52.764  58.103  0.00  0.00    +0.000 C 
ATOM      8  O   UNL     1      39.127  53.839  58.931  0.00  0.00    +0.000 OA
ENDBRANCH   1   8
BRANCH   3   9
ATOM      9  C   UNL     1      35.856  56.840  60.580  0.00  0.00    +0.000 C 
ATOM     10  C   UNL     1      35.636  57.959  60.080  0.00  0.00    +0.000 C 
BRANCH  10  11
ATOM     11  C   UNL     1      35.498  58.216  58.687  0.00  0.00    +0.000 A 
ATOM     12  C   UNL     1      36.364  58.326  57.682  0.00  0.00    +0.000 A 
ATOM     13  C   UNL     1      36.038  58.580  56.389  0.00  0.00    +0.000 A 
ATOM     14  C   UNL     1      34.728  58.746  56.026  0.00  0.00    +0.000 A 
ATOM     15  O   UNL     1      34.347  59.003  54.738  0.00  0.00    +0.000 OA
ATOM     16  C   UNL     1      33.786  58.643  57.025  0.00  0.00    +0.000 A 
ATOM     17  C   UNL     1      34.146  58.386  58.321  0.00  0.00    +0.000 A 
ENDBRANCH  10  11
ENDBRANCH   3   9
BRANCH   5  18
ATOM     18  O   UNL     1      34.539  52.666  58.366  0.00  0.00    +0.000 OA
ATOM     19  C   UNL     1      33.186  52.928  58.686  0.00  0.00    +0.000 C 
ENDBRANCH   5  18
TORSDOF 4
ENDMDL
MODEL 7
REMARK VINA RESULT:      -5.4      4.220      6.676
REMARK  Name = 
REMARK  4 active torsions:
REMARK  status: ('A' for Active; 'I' for Inactive)
REMARK    1  A    between atoms: O_2  and  C_3
REMARK    2  A    between atoms: C_5  and  C_6
REMARK    3  A    between atoms: C_7  and  C_8
REMARK    4  A    between atoms: C_16  and  O_17
REMARK                            x       y       z     vdW  Elec       q    Type
REMARK                         _______ _______ _______ _____ _____    ______ ____
ROOT
ATOM      1  C   UNL     1      37.334  54.515  58.822  0.00  0.00    +0.000 A 
ATOM      2  C   UNL     1      36.318  53.616  58.703  0.00  0.00    +0.000 A 
ATOM      3  C   UNL     1      36.553  52.210  58.743  0.00  0.00    +0.000 A 
ATOM      4  C   UNL     1      37.839  51.883  58.906  0.00  0.00    +0.000 A 
ATOM      5  C   UNL     1      38.876  52.760  59.027  0.00  0.00    +0.000 A 
ATOM      6  C   UNL     1      38.627  54.096  58.986  0.00  0.00    +0.000 A 
ENDROOT
BRANCH   1   8
ATOM      7  C   UNL     1      36.126  56.428  57.906  0.00  0.00    +0.000 C 
ATOM      8  O   UNL     1      37.094  55.882  58.782  0.00  0.00    +0.000 OA
ENDBRANCH   1   8
BRANCH   3   9
ATOM      9  C   UNL     1      35.356  51.480  58.600  0.00  0.00    +0.000 C 
ATOM     10  C   UNL     1      34.687  50.917  59.486  0.00  0.00    +0.000 C 
BRANCH  10  11
ATOM     11  C   UNL     1      35.017  50.902  60.870  0.00  0.00    +0.000 A 
ATOM     12  C   UNL     1      35.122  51.849  61.800  0.00  0.00    +0.000 A 
ATOM     13  C   UNL     1      35.457  51.640  63.099  0.00  0.00    +0.000 A 
ATOM     14  C   UNL     1      35.719  50.374  63.549  0.00  0.00    +0.000 A 
ATOM     15  O   UNL     1      36.060  50.110  64.848  0.00  0.00    +0.000 OA
ATOM     16  C   UNL     1      35.626  49.353  62.631  0.00  0.00    +0.000 A 
ATOM     17  C   UNL     1      35.286  49.595  61.327  0.00  0.00    +0.000 A 
ENDBRANCH  10  11
ENDBRANCH   3   9
BRANCH   5  18
ATOM     18  O   UNL     1      40.163  52.254  59.192  0.00  0.00    +0.000 OA
ATOM     19  C   UNL     1      41.149  52.489  58.203  0.00  0.00    +0.000 C 
ENDBRANCH   5  18
TORSDOF 4
ENDMDL
MODEL 8
REMARK VINA RESULT:      -5.4      3.966      8.157
REMARK  Name = 
REMARK  4 active torsions:
REMARK  status: ('A' for Active; 'I' for Inactive)
REMARK    1  A    between atoms: O_2  and  C_3
REMARK    2  A    between atoms: C_5  and  C_6
REMARK    3  A    between atoms: C_7  and  C_8
REMARK    4  A    between atoms: C_16  and  O_17
REMARK                            x       y       z     vdW  Elec       q    Type
REMARK                         _______ _______ _______ _____ _____    ______ ____
ROOT
ATOM      1  C   UNL     1      36.035  49.641  61.463  0.00  0.00    +0.000 A 
ATOM      2  C   UNL     1      35.055  50.269  60.755  0.00  0.00    +0.000 A 
ATOM      3  C   UNL     1      35.347  51.036  59.590  0.00  0.00    +0.000 A 
ATOM      4  C   UNL     1      36.647  51.070  59.279  0.00  0.00    +0.000 A 
ATOM      5  C   UNL     1      37.649  50.454  59.968  0.00  0.00    +0.000 A 
ATOM      6  C   UNL     1      37.345  49.727  61.077  0.00  0.00    +0.000 A 
ENDROOT
BRANCH   1   8
ATOM      7  C   UNL     1      34.734  49.310  63.502  0.00  0.00    +0.000 C 
ATOM      8  O   UNL     1      35.739  48.896  62.596  0.00  0.00    +0.000 OA
ENDBRANCH   1   8
BRANCH   3   9
ATOM      9  C   UNL     1      34.180  51.589  59.028  0.00  0.00    +0.000 C 
ATOM     10  C   UNL     1      33.948  52.782  58.751  0.00  0.00    +0.000 C 
BRANCH  10  11
ATOM     11  C   UNL     1      34.857  53.857  58.959  0.00  0.00    +0.000 A 
ATOM     12  C   UNL     1      35.826  54.397  58.222  0.00  0.00    +0.000 A 
ATOM     13  C   UNL     1      36.606  55.443  58.597  0.00  0.00    +0.000 A 
ATOM     14  C   UNL     1      36.430  56.033  59.820  0.00  0.00    +0.000 A 
ATOM     15  O   UNL     1      37.189  57.089  60.245  0.00  0.00    +0.000 OA
ATOM     16  C   UNL     1      35.442  55.516  60.626  0.00  0.00    +0.000 A 
ATOM     17  C   UNL     1      34.670  54.459  60.220  0.00  0.00    +0.000 A 
ENDBRANCH  10  11
ENDBRANCH   3   9
BRANCH   5  18
ATOM     18  O   UNL     1      38.957  50.588  59.510  0.00  0.00    +0.000 OA
ATOM     19  C   UNL     1      39.411  51.836  59.020  0.00  0.00    +0.000 C 
ENDBRANCH   5  18
TORSDOF 4
ENDMDL
MODEL 9
REMARK VINA RESULT:      -5.3      3.234      7.140
REMARK  Name = 
REMARK  4 active torsions:
REMARK  status: ('A' for Active; 'I' for Inactive)
REMARK    1  A    between atoms: O_2  and  C_3
REMARK    2  A    between atoms: C_5  and  C_6
REMARK    3  A    between atoms: C_7  and  C_8
REMARK    4  A    between atoms: C_16  and  O_17
REMARK                            x       y       z     vdW  Elec       q    Type
REMARK                         _______ _______ _______ _____ _____    ______ ____
ROOT
ATOM      1  C   UNL     1      36.223  50.172  60.714  0.00  0.00    +0.000 A 
ATOM      2  C   UNL     1      37.252  50.880  60.172  0.00  0.00    +0.000 A 
ATOM      3  C   UNL     1      37.044  51.811  59.112  0.00  0.00    +0.000 A 
ATOM      4  C   UNL     1      35.768  51.907  58.722  0.00  0.00    +0.000 A 
ATOM      5  C   UNL     1      34.720  51.211  59.245  0.00  0.00    +0.000 A 
ATOM      6  C   UNL     1      34.943  50.329  60.255  0.00  0.00    +0.000 A 
ENDROOT
BRANCH   1   8
ATOM      7  C   UNL     1      36.823  49.708  63.034  0.00  0.00    +0.000 C 
ATOM      8  O   UNL     1      36.436  49.268  61.746  0.00  0.00    +0.000 OA
ENDBRANCH   1   8
BRANCH   3   9
ATOM      9  C   UNL     1      38.249  52.422  58.715  0.00  0.00    +0.000 C 
ATOM     10  C   UNL     1      38.556  53.629  58.769  0.00  0.00    +0.000 C 
BRANCH  10  11
ATOM     11  C   UNL     1      37.711  54.661  59.261  0.00  0.00    +0.000 A 
ATOM     12  C   UNL     1      37.459  55.143  60.477  0.00  0.00    +0.000 A 
ATOM     13  C   UNL     1      36.600  56.155  60.759  0.00  0.00    +0.000 A 
ATOM     14  C   UNL     1      35.906  56.772  59.753  0.00  0.00    +0.000 A 
ATOM     15  O   UNL     1      35.029  57.797  59.983  0.00  0.00    +0.000 OA
ATOM     16  C   UNL     1      36.125  56.317  58.473  0.00  0.00    +0.000 A 
ATOM     17  C   UNL     1      36.999  55.292  58.220  0.00  0.00    +0.000 A 
ENDBRANCH  10  11
ENDBRANCH   3   9
BRANCH   5  18
ATOM     18  O   UNL     1      33.447  51.429  58.724  0.00  0.00    +0.000 OA
ATOM     19  C   UNL     1      32.956  52.749  58.579  0.00  0.00    +0.000 C 
ENDBRANCH   5  18
TORSDOF 4
ENDMDL
MODEL 10
REMARK VINA RESULT:      -5.3      2.861      4.381
REMARK  Name = 
REMARK  4 active torsions:
REMARK  status: ('A' for Active; 'I' for Inactive)
REMARK    1  A    between atoms: O_2  and  C_3
REMARK    2  A    between atoms: C_5  and  C_6
REMARK    3  A    between atoms: C_7  and  C_8
REMARK    4  A    between atoms: C_16  and  O_17
REMARK                            x       y       z     vdW  Elec       q    Type
REMARK                         _______ _______ _______ _____ _____    ______ ____
ROOT
ATOM      1  C   UNL     1      34.820  61.875  54.512  0.00  0.00    +0.000 A 
ATOM      2  C   UNL     1      35.478  60.724  54.200  0.00  0.00    +0.000 A 
ATOM      3  C   UNL     1      34.836  59.453  54.264  0.00  0.00    +0.000 A 
ATOM      4  C   UNL     1      33.558  59.514  54.652  0.00  0.00    +0.000 A 
ATOM      5  C   UNL     1      32.874  60.650  54.971  0.00  0.00    +0.000 A 
ATOM      6  C   UNL     1      33.509  61.850  54.902  0.00  0.00    +0.000 A 
ENDROOT
BRANCH   1   8
ATOM      7  C   UNL     1      36.638  63.361  55.180  0.00  0.00    +0.000 C 
ATOM      8  O   UNL     1      35.455  63.108  54.446  0.00  0.00    +0.000 OA
ENDBRANCH   1   8
BRANCH   3   9
ATOM      9  C   UNL     1      35.711  58.412  53.898  0.00  0.00    +0.000 C 
ATOM     10  C   UNL     1      36.407  57.693  54.640  0.00  0.00    +0.000 C 
BRANCH  10  11
ATOM     11  C   UNL     1      36.452  57.792  56.058  0.00  0.00    +0.000 A 
ATOM     12  C   UNL     1      36.728  58.784  56.903  0.00  0.00    +0.000 A 
ATOM     13  C   UNL     1      36.720  58.687  58.257  0.00  0.00    +0.000 A 
ATOM     14  C   UNL     1      36.413  57.499  58.863  0.00  0.00    +0.000 A 
ATOM     15  O   UNL     1      36.391  57.348  60.223  0.00  0.00    +0.000 OA
ATOM     16  C   UNL     1      36.119  56.435  58.040  0.00  0.00    +0.000 A 
ATOM     17  C   UNL     1      36.134  56.564  56.676  0.00  0.00    +0.000 A 
ENDBRANCH  10  11
ENDBRANCH   3   9
BRANCH   5  18
ATOM     18  O   UNL     1      31.541  60.541  55.359  0.00  0.00    +0.000 OA
ATOM     19  C   UNL     1      31.006  61.433  56.318  0.00  0.00    +0.000 C 
ENDBRANCH   5  18
TORSDOF 4
ENDMDL
