REMARK  Name = 
REMARK  8 active torsions:
REMARK  status: ('A' for Active; 'I' for Inactive)
REMARK    1  A    between atoms: O_2  and  C_3
REMARK    2  A    between atoms: C_3  and  O_4
REMARK    3  A    between atoms: O_4  and  C_5
REMARK    4  A    between atoms: C_8  and  C_9
REMARK    5  A    between atoms: C_10  and  C_11
REMARK    6  A    between atoms: C_13  and  O_14
REMARK    7  A    between atoms: C_16  and  O_17
REMARK    8  A    between atoms: C_19  and  O_20
REMARK                            x       y       z     vdW  Elec       q    Type
REMARK                         _______ _______ _______ _____ _____    ______ ____
ROOT
ATOM      1  C   UNL     1       0.635   0.282  -0.349  0.00  0.00    +0.000 C 
ATOM      2  C   UNL     1      -0.423   0.116   0.427  0.00  0.00    +0.000 C 
ENDROOT
BRANCH   1   6
ATOM      3  C   UNL     1       4.505  -0.168   1.422  0.00  0.00    +0.000 A 
ATOM      4  C   UNL     1       4.366   0.141   0.086  0.00  0.00    +0.000 A 
ATOM      5  C   UNL     1       3.113   0.282  -0.470  0.00  0.00    +0.000 A 
ATOM      6  C   UNL     1       1.955   0.125   0.272  0.00  0.00    +0.000 A 
ATOM      7  C   UNL     1       2.107  -0.184   1.608  0.00  0.00    +0.000 A 
ATOM      8  C   UNL     1       3.362  -0.329   2.174  0.00  0.00    +0.000 A 
BRANCH   3   9
ATOM      9  O   UNL     1       5.771  -0.319   2.017  0.00  0.00    +0.000 OA
BRANCH   9  10
ATOM     10  C   UNL     1       6.941  -0.154   1.240  0.00  0.00    +0.000 C 
BRANCH  10  12
ATOM     11  C   UNL     1       8.150  -0.851  -0.533  0.00  0.00    +0.000 C 
ATOM     12  O   UNL     1       6.973  -1.079   0.180  0.00  0.00    +0.000 OA
ENDBRANCH  10  12
ENDBRANCH   9  10
ENDBRANCH   3   9
ENDBRANCH   1   6
BRANCH   2  13
ATOM     13  C   UNL     1      -1.782   0.234  -0.023  0.00  0.00    +0.000 A 
ATOM     14  C   UNL     1      -2.107   0.537  -1.325  0.00  0.00    +0.000 A 
ATOM     15  C   UNL     1      -3.420   0.646  -1.734  0.00  0.00    +0.000 A 
ATOM     16  C   UNL     1      -4.468   0.455  -0.852  0.00  0.00    +0.000 A 
ATOM     17  C   UNL     1      -4.113   0.151   0.452  0.00  0.00    +0.000 A 
ATOM     18  C   UNL     1      -2.806   0.040   0.871  0.00  0.00    +0.000 A 
BRANCH  15  19
ATOM     19  O   UNL     1      -3.753   0.954  -3.058  0.00  0.00    +0.000 OA
ATOM     20  C   UNL     1      -2.681   1.156  -3.985  0.00  0.00    +0.000 C 
ENDBRANCH  15  19
BRANCH  16  21
ATOM     21  O   UNL     1      -5.787   0.564  -1.264  0.00  0.00    +0.000 OA
ATOM     22  C   UNL     1      -6.506   1.781  -1.227  0.00  0.00    +0.000 C 
ENDBRANCH  16  21
BRANCH  17  23
ATOM     23  O   UNL     1      -5.170  -0.047   1.362  0.00  0.00    +0.000 OA
ATOM     24  C   UNL     1      -4.861  -0.361   2.712  0.00  0.00    +0.000 C 
ENDBRANCH  17  23
ENDBRANCH   2  13
TORSDOF 8
