MODEL 1
REMARK VINA RESULT:      -6.7      0.000      0.000
REMARK  Name = 
REMARK  6 active torsions:
REMARK  status: ('A' for Active; 'I' for Inactive)
REMARK    1  A    between atoms: O_2  and  C_3
REMARK    2  A    between atoms: C_6  and  C_7
REMARK    3  A    between atoms: C_8  and  C_9
REMARK    4  A    between atoms: C_11  and  O_12
REMARK    5  A    between atoms: C_14  and  O_15
REMARK    6  A    between atoms: C_17  and  O_18
REMARK                            x       y       z     vdW  Elec       q    Type
REMARK                         _______ _______ _______ _____ _____    ______ ____
ROOT
ATOM      1  C   UNL     1      36.040  55.564  59.505  0.00  0.00    +0.000 A 
ATOM      2  C   UNL     1      37.366  55.500  59.753  0.00  0.00    +0.000 A 
ATOM      3  C   UNL     1      38.189  54.434  59.473  0.00  0.00    +0.000 A 
ATOM      4  C   UNL     1      37.661  53.279  58.874  0.00  0.00    +0.000 A 
ATOM      5  C   UNL     1      36.314  53.313  58.609  0.00  0.00    +0.000 A 
ATOM      6  C   UNL     1      35.526  54.391  58.902  0.00  0.00    +0.000 A 
ENDROOT
BRANCH   1   8
ATOM      7  C   UNL     1      34.693  57.427  58.901  0.00  0.00    +0.000 C 
ATOM      8  C   UNL     1      35.062  56.581  59.733  0.00  0.00    +0.000 C 
BRANCH   7  12
ATOM      9  C   UNL     1      35.611  58.196  54.840  0.00  0.00    +0.000 A 
ATOM     10  C   UNL     1      36.478  57.378  55.542  0.00  0.00    +0.000 A 
ATOM     11  C   UNL     1      36.196  57.116  56.864  0.00  0.00    +0.000 A 
ATOM     12  C   UNL     1      35.144  57.579  57.568  0.00  0.00    +0.000 A 
ATOM     13  C   UNL     1      34.294  58.406  56.806  0.00  0.00    +0.000 A 
ATOM     14  C   UNL     1      34.526  58.694  55.502  0.00  0.00    +0.000 A 
ATOM     15  O   UNL     1      33.656  59.524  54.770  0.00  0.00    +0.000 OA
BRANCH   9  17
ATOM     16  C   UNL     1      36.930  59.227  53.040  0.00  0.00    +0.000 C 
ATOM     17  O   UNL     1      35.816  58.513  53.502  0.00  0.00    +0.000 OA
ENDBRANCH   9  17
ENDBRANCH   7  12
ENDBRANCH   1   8
BRANCH   3  18
ATOM     18  O   UNL     1      39.547  54.388  59.734  0.00  0.00    +0.000 OA
ATOM     19  C   UNL     1      40.070  54.418  61.024  0.00  0.00    +0.000 C 
ENDBRANCH   3  18
BRANCH   4  20
ATOM     20  O   UNL     1      38.469  52.193  58.581  0.00  0.00    +0.000 OA
ATOM     21  C   UNL     1      38.634  51.095  59.476  0.00  0.00    +0.000 C 
ENDBRANCH   4  20
BRANCH   5  22
ATOM     22  O   UNL     1      35.768  52.182  58.017  0.00  0.00    +0.000 OA
ATOM     23  C   UNL     1      34.916  51.306  58.742  0.00  0.00    +0.000 C 
ENDBRANCH   5  22
TORSDOF 6
ENDMDL
MODEL 2
REMARK VINA RESULT:      -6.6      0.195      2.551
REMARK  Name = 
REMARK  6 active torsions:
REMARK  status: ('A' for Active; 'I' for Inactive)
REMARK    1  A    between atoms: O_2  and  C_3
REMARK    2  A    between atoms: C_6  and  C_7
REMARK    3  A    between atoms: C_8  and  C_9
REMARK    4  A    between atoms: C_11  and  O_12
REMARK    5  A    between atoms: C_14  and  O_15
REMARK    6  A    between atoms: C_17  and  O_18
REMARK                            x       y       z     vdW  Elec       q    Type
REMARK                         _______ _______ _______ _____ _____    ______ ____
ROOT
ATOM      1  C   UNL     1      35.787  55.492  59.394  0.00  0.00    +0.000 A 
ATOM      2  C   UNL     1      35.402  54.323  58.838  0.00  0.00    +0.000 A 
ATOM      3  C   UNL     1      36.212  53.238  58.595  0.00  0.00    +0.000 A 
ATOM      4  C   UNL     1      37.574  53.291  58.935  0.00  0.00    +0.000 A 
ATOM      5  C   UNL     1      37.997  54.468  59.503  0.00  0.00    +0.000 A 
ATOM      6  C   UNL     1      37.162  55.526  59.729  0.00  0.00    +0.000 A 
ENDROOT
BRANCH   1   8
ATOM      7  C   UNL     1      34.858  57.627  58.916  0.00  0.00    +0.000 C 
ATOM      8  C   UNL     1      35.079  56.693  59.706  0.00  0.00    +0.000 C 
BRANCH   7  12
ATOM      9  C   UNL     1      35.591  58.217  54.788  0.00  0.00    +0.000 A 
ATOM     10  C   UNL     1      36.474  57.406  55.479  0.00  0.00    +0.000 A 
ATOM     11  C   UNL     1      36.252  57.202  56.822  0.00  0.00    +0.000 A 
ATOM     12  C   UNL     1      35.246  57.716  57.558  0.00  0.00    +0.000 A 
ATOM     13  C   UNL     1      34.377  58.533  56.805  0.00  0.00    +0.000 A 
ATOM     14  C   UNL     1      34.551  58.766  55.482  0.00  0.00    +0.000 A 
ATOM     15  O   UNL     1      33.664  59.586  54.760  0.00  0.00    +0.000 OA
BRANCH   9  17
ATOM     16  C   UNL     1      36.782  59.245  52.899  0.00  0.00    +0.000 C 
ATOM     17  O   UNL     1      35.737  58.478  53.429  0.00  0.00    +0.000 OA
ENDBRANCH   9  17
ENDBRANCH   7  12
ENDBRANCH   1   8
BRANCH   3  18
ATOM     18  O   UNL     1      35.799  52.048  58.024  0.00  0.00    +0.000 OA
ATOM     19  C   UNL     1      34.976  51.140  58.684  0.00  0.00    +0.000 C 
ENDBRANCH   3  18
BRANCH   4  20
ATOM     20  O   UNL     1      38.411  52.212  58.702  0.00  0.00    +0.000 OA
ATOM     21  C   UNL     1      38.640  51.194  59.673  0.00  0.00    +0.000 C 
ENDBRANCH   4  20
BRANCH   5  22
ATOM     22  O   UNL     1      39.340  54.543  59.848  0.00  0.00    +0.000 OA
ATOM     23  C   UNL     1      39.748  54.741  61.195  0.00  0.00    +0.000 C 
ENDBRANCH   5  22
TORSDOF 6
ENDMDL
MODEL 3
REMARK VINA RESULT:      -6.5     12.510     15.368
REMARK  Name = 
REMARK  6 active torsions:
REMARK  status: ('A' for Active; 'I' for Inactive)
REMARK    1  A    between atoms: O_2  and  C_3
REMARK    2  A    between atoms: C_6  and  C_7
REMARK    3  A    between atoms: C_8  and  C_9
REMARK    4  A    between atoms: C_11  and  O_12
REMARK    5  A    between atoms: C_14  and  O_15
REMARK    6  A    between atoms: C_17  and  O_18
REMARK                            x       y       z     vdW  Elec       q    Type
REMARK                         _______ _______ _______ _____ _____    ______ ____
ROOT
ATOM      1  C   UNL     1      29.861  43.201  61.842  0.00  0.00    +0.000 A 
ATOM      2  C   UNL     1      28.928  42.556  62.576  0.00  0.00    +0.000 A 
ATOM      3  C   UNL     1      27.953  41.719  62.086  0.00  0.00    +0.000 A 
ATOM      4  C   UNL     1      27.869  41.471  60.706  0.00  0.00    +0.000 A 
ATOM      5  C   UNL     1      28.805  42.113  59.932  0.00  0.00    +0.000 A 
ATOM      6  C   UNL     1      29.760  42.940  60.454  0.00  0.00    +0.000 A 
ENDROOT
BRANCH   1   8
ATOM      7  C   UNL     1      30.781  45.223  62.688  0.00  0.00    +0.000 C 
ATOM      8  C   UNL     1      30.922  44.091  62.193  0.00  0.00    +0.000 C 
BRANCH   7  12
ATOM      9  C   UNL     1      27.260  47.509  63.230  0.00  0.00    +0.000 A 
ATOM     10  C   UNL     1      27.478  46.463  64.108  0.00  0.00    +0.000 A 
ATOM     11  C   UNL     1      28.618  45.708  63.948  0.00  0.00    +0.000 A 
ATOM     12  C   UNL     1      29.569  45.878  63.008  0.00  0.00    +0.000 A 
ATOM     13  C   UNL     1      29.298  46.956  62.141  0.00  0.00    +0.000 A 
ATOM     14  C   UNL     1      28.191  47.730  62.256  0.00  0.00    +0.000 A 
ATOM     15  O   UNL     1      27.952  48.800  61.373  0.00  0.00    +0.000 OA
BRANCH   9  17
ATOM     16  C   UNL     1      25.239  48.290  64.393  0.00  0.00    +0.000 C 
ATOM     17  O   UNL     1      26.137  48.325  63.317  0.00  0.00    +0.000 OA
ENDBRANCH   9  17
ENDBRANCH   7  12
ENDBRANCH   1   8
BRANCH   3  18
ATOM     18  O   UNL     1      27.006  41.066  62.855  0.00  0.00    +0.000 OA
ATOM     19  C   UNL     1      27.330  40.058  63.758  0.00  0.00    +0.000 C 
ENDBRANCH   3  18
BRANCH   4  20
ATOM     20  O   UNL     1      26.898  40.632  60.188  0.00  0.00    +0.000 OA
ATOM     21  C   UNL     1      27.126  39.243  59.959  0.00  0.00    +0.000 C 
ENDBRANCH   4  20
BRANCH   5  22
ATOM     22  O   UNL     1      28.742  41.885  58.564  0.00  0.00    +0.000 OA
ATOM     23  C   UNL     1      29.847  41.343  57.853  0.00  0.00    +0.000 C 
ENDBRANCH   5  22
TORSDOF 6
ENDMDL
MODEL 4
REMARK VINA RESULT:      -6.3      1.436      3.082
REMARK  Name = 
REMARK  6 active torsions:
REMARK  status: ('A' for Active; 'I' for Inactive)
REMARK    1  A    between atoms: O_2  and  C_3
REMARK    2  A    between atoms: C_6  and  C_7
REMARK    3  A    between atoms: C_8  and  C_9
REMARK    4  A    between atoms: C_11  and  O_12
REMARK    5  A    between atoms: C_14  and  O_15
REMARK    6  A    between atoms: C_17  and  O_18
REMARK                            x       y       z     vdW  Elec       q    Type
REMARK                         _______ _______ _______ _____ _____    ______ ____
ROOT
ATOM      1  C   UNL     1      35.818  56.134  59.860  0.00  0.00    +0.000 A 
ATOM      2  C   UNL     1      35.008  55.159  59.393  0.00  0.00    +0.000 A 
ATOM      3  C   UNL     1      35.410  53.921  58.947  0.00  0.00    +0.000 A 
ATOM      4  C   UNL     1      36.773  53.582  58.953  0.00  0.00    +0.000 A 
ATOM      5  C   UNL     1      37.622  54.554  59.422  0.00  0.00    +0.000 A 
ATOM      6  C   UNL     1      37.187  55.773  59.858  0.00  0.00    +0.000 A 
ENDROOT
BRANCH   1   8
ATOM      7  C   UNL     1      35.405  58.465  59.649  0.00  0.00    +0.000 C 
ATOM      8  C   UNL     1      35.561  57.451  60.351  0.00  0.00    +0.000 C 
BRANCH   7  12
ATOM      9  C   UNL     1      36.023  58.929  55.487  0.00  0.00    +0.000 A 
ATOM     10  C   UNL     1      34.814  58.393  55.892  0.00  0.00    +0.000 A 
ATOM     11  C   UNL     1      34.594  58.235  57.242  0.00  0.00    +0.000 A 
ATOM     12  C   UNL     1      35.446  58.551  58.238  0.00  0.00    +0.000 A 
ATOM     13  C   UNL     1      36.662  59.092  57.769  0.00  0.00    +0.000 A 
ATOM     14  C   UNL     1      36.927  59.268  56.452  0.00  0.00    +0.000 A 
ATOM     15  O   UNL     1      38.151  59.812  56.019  0.00  0.00    +0.000 OA
BRANCH   9  17
ATOM     16  C   UNL     1      35.426  58.885  53.102  0.00  0.00    +0.000 C 
ATOM     17  O   UNL     1      36.331  59.125  54.145  0.00  0.00    +0.000 OA
ENDBRANCH   9  17
ENDBRANCH   7  12
ENDBRANCH   1   8
BRANCH   3  18
ATOM     18  O   UNL     1      34.564  52.934  58.472  0.00  0.00    +0.000 OA
ATOM     19  C   UNL     1      33.190  52.948  58.688  0.00  0.00    +0.000 C 
ENDBRANCH   3  18
BRANCH   4  20
ATOM     20  O   UNL     1      37.203  52.342  58.510  0.00  0.00    +0.000 OA
ATOM     21  C   UNL     1      37.387  51.234  59.388  0.00  0.00    +0.000 C 
ENDBRANCH   4  20
BRANCH   5  22
ATOM     22  O   UNL     1      38.975  54.241  59.438  0.00  0.00    +0.000 OA
ATOM     23  C   UNL     1      39.774  54.469  60.591  0.00  0.00    +0.000 C 
ENDBRANCH   5  22
TORSDOF 6
ENDMDL
MODEL 5
REMARK VINA RESULT:      -6.2      2.198      6.984
REMARK  Name = 
REMARK  6 active torsions:
REMARK  status: ('A' for Active; 'I' for Inactive)
REMARK    1  A    between atoms: O_2  and  C_3
REMARK    2  A    between atoms: C_6  and  C_7
REMARK    3  A    between atoms: C_8  and  C_9
REMARK    4  A    between atoms: C_11  and  O_12
REMARK    5  A    between atoms: C_14  and  O_15
REMARK    6  A    between atoms: C_17  and  O_18
REMARK                            x       y       z     vdW  Elec       q    Type
REMARK                         _______ _______ _______ _____ _____    ______ ____
ROOT
ATOM      1  C   UNL     1      35.567  59.121  58.256  0.00  0.00    +0.000 A 
ATOM      2  C   UNL     1      34.602  59.060  57.313  0.00  0.00    +0.000 A 
ATOM      3  C   UNL     1      34.776  59.269  55.964  0.00  0.00    +0.000 A 
ATOM      4  C   UNL     1      36.052  59.576  55.461  0.00  0.00    +0.000 A 
ATOM      5  C   UNL     1      37.055  59.645  56.397  0.00  0.00    +0.000 A 
ATOM      6  C   UNL     1      36.844  59.432  57.730  0.00  0.00    +0.000 A 
ENDROOT
BRANCH   1   8
ATOM      7  C   UNL     1      35.527  57.836  60.255  0.00  0.00    +0.000 C 
ATOM      8  C   UNL     1      35.547  58.934  59.672  0.00  0.00    +0.000 C 
BRANCH   7  12
ATOM      9  C   UNL     1      35.043  53.902  58.770  0.00  0.00    +0.000 A 
ATOM     10  C   UNL     1      36.152  54.609  58.342  0.00  0.00    +0.000 A 
ATOM     11  C   UNL     1      36.327  55.890  58.814  0.00  0.00    +0.000 A 
ATOM     12  C   UNL     1      35.519  56.549  59.668  0.00  0.00    +0.000 A 
ATOM     13  C   UNL     1      34.405  55.784  60.072  0.00  0.00    +0.000 A 
ATOM     14  C   UNL     1      34.187  54.519  59.637  0.00  0.00    +0.000 A 
ATOM     15  O   UNL     1      33.065  53.783  60.061  0.00  0.00    +0.000 OA
BRANCH   9  17
ATOM     16  C   UNL     1      35.561  51.498  58.727  0.00  0.00    +0.000 C 
ATOM     17  O   UNL     1      34.787  52.602  58.345  0.00  0.00    +0.000 OA
ENDBRANCH   9  17
ENDBRANCH   7  12
ENDBRANCH   1   8
BRANCH   3  18
ATOM     18  O   UNL     1      33.774  59.201  55.012  0.00  0.00    +0.000 OA
ATOM     19  C   UNL     1      32.754  60.144  54.922  0.00  0.00    +0.000 C 
ENDBRANCH   3  18
BRANCH   4  20
ATOM     20  O   UNL     1      36.254  59.789  54.109  0.00  0.00    +0.000 OA
ATOM     21  C   UNL     1      36.605  58.739  53.210  0.00  0.00    +0.000 C 
ENDBRANCH   4  20
BRANCH   5  22
ATOM     22  O   UNL     1      38.325  59.947  55.924  0.00  0.00    +0.000 OA
ATOM     23  C   UNL     1      39.231  60.733  56.687  0.00  0.00    +0.000 C 
ENDBRANCH   5  22
TORSDOF 6
ENDMDL
MODEL 6
REMARK VINA RESULT:      -6.1      2.076      6.782
REMARK  Name = 
REMARK  6 active torsions:
REMARK  status: ('A' for Active; 'I' for Inactive)
REMARK    1  A    between atoms: O_2  and  C_3
REMARK    2  A    between atoms: C_6  and  C_7
REMARK    3  A    between atoms: C_8  and  C_9
REMARK    4  A    between atoms: C_11  and  O_12
REMARK    5  A    between atoms: C_14  and  O_15
REMARK    6  A    between atoms: C_17  and  O_18
REMARK                            x       y       z     vdW  Elec       q    Type
REMARK                         _______ _______ _______ _____ _____    ______ ____
ROOT
ATOM      1  C   UNL     1      36.010  58.130  58.545  0.00  0.00    +0.000 A 
ATOM      2  C   UNL     1      36.501  57.827  57.324  0.00  0.00    +0.000 A 
ATOM      3  C   UNL     1      35.880  58.070  56.121  0.00  0.00    +0.000 A 
ATOM      4  C   UNL     1      34.619  58.687  56.095  0.00  0.00    +0.000 A 
ATOM      5  C   UNL     1      34.092  59.009  57.322  0.00  0.00    +0.000 A 
ATOM      6  C   UNL     1      34.739  58.751  58.498  0.00  0.00    +0.000 A 
ENDROOT
BRANCH   1   8
ATOM      7  C   UNL     1      36.628  56.855  60.453  0.00  0.00    +0.000 C 
ATOM      8  C   UNL     1      36.522  57.946  59.866  0.00  0.00    +0.000 C 
BRANCH   7  12
ATOM      9  C   UNL     1      35.083  53.118  59.200  0.00  0.00    +0.000 A 
ATOM     10  C   UNL     1      36.399  53.399  58.881  0.00  0.00    +0.000 A 
ATOM     11  C   UNL     1      36.920  54.609  59.280  0.00  0.00    +0.000 A 
ATOM     12  C   UNL     1      36.275  55.575  59.964  0.00  0.00    +0.000 A 
ATOM     13  C   UNL     1      34.938  55.238  60.262  0.00  0.00    +0.000 A 
ATOM     14  C   UNL     1      34.378  54.061  59.892  0.00  0.00    +0.000 A 
ATOM     15  O   UNL     1      33.041  53.756  60.207  0.00  0.00    +0.000 OA
BRANCH   9  17
ATOM     16  C   UNL     1      34.568  50.747  59.596  0.00  0.00    +0.000 C 
ATOM     17  O   UNL     1      34.475  51.921  58.837  0.00  0.00    +0.000 OA
ENDBRANCH   9  17
ENDBRANCH   7  12
ENDBRANCH   1   8
BRANCH   3  18
ATOM     18  O   UNL     1      36.401  57.752  54.879  0.00  0.00    +0.000 OA
ATOM     19  C   UNL     1      37.478  58.429  54.315  0.00  0.00    +0.000 C 
ENDBRANCH   3  18
BRANCH   4  20
ATOM     20  O   UNL     1      33.974  58.944  54.897  0.00  0.00    +0.000 OA
ATOM     21  C   UNL     1      34.107  60.182  54.202  0.00  0.00    +0.000 C 
ENDBRANCH   4  20
BRANCH   5  22
ATOM     22  O   UNL     1      32.846  59.620  57.321  0.00  0.00    +0.000 OA
ATOM     23  C   UNL     1      32.413  60.419  58.414  0.00  0.00    +0.000 C 
ENDBRANCH   5  22
TORSDOF 6
ENDMDL
MODEL 7
REMARK VINA RESULT:      -6.0      3.942      6.783
REMARK  Name = 
REMARK  6 active torsions:
REMARK  status: ('A' for Active; 'I' for Inactive)
REMARK    1  A    between atoms: O_2  and  C_3
REMARK    2  A    between atoms: C_6  and  C_7
REMARK    3  A    between atoms: C_8  and  C_9
REMARK    4  A    between atoms: C_11  and  O_12
REMARK    5  A    between atoms: C_14  and  O_15
REMARK    6  A    between atoms: C_17  and  O_18
REMARK                            x       y       z     vdW  Elec       q    Type
REMARK                         _______ _______ _______ _____ _____    ______ ____
ROOT
ATOM      1  C   UNL     1      33.580  59.493  55.725  0.00  0.00    +0.000 A 
ATOM      2  C   UNL     1      33.461  59.204  57.039  0.00  0.00    +0.000 A 
ATOM      3  C   UNL     1      34.310  58.406  57.770  0.00  0.00    +0.000 A 
ATOM      4  C   UNL     1      35.420  57.808  57.149  0.00  0.00    +0.000 A 
ATOM      5  C   UNL     1      35.567  58.083  55.811  0.00  0.00    +0.000 A 
ATOM      6  C   UNL     1      34.702  58.882  55.117  0.00  0.00    +0.000 A 
ENDROOT
BRANCH   1   8
ATOM      7  C   UNL     1      31.675  60.766  55.092  0.00  0.00    +0.000 C 
ATOM      8  C   UNL     1      32.795  60.290  54.836  0.00  0.00    +0.000 C 
BRANCH   7  12
ATOM      9  C   UNL     1      29.171  59.991  58.416  0.00  0.00    +0.000 A 
ATOM     10  C   UNL     1      30.162  60.943  58.578  0.00  0.00    +0.000 A 
ATOM     11  C   UNL     1      30.987  61.209  57.508  0.00  0.00    +0.000 A 
ATOM     12  C   UNL     1      30.935  60.632  56.290  0.00  0.00    +0.000 A 
ATOM     13  C   UNL     1      29.908  59.671  56.181  0.00  0.00    +0.000 A 
ATOM     14  C   UNL     1      29.071  59.373  57.203  0.00  0.00    +0.000 A 
ATOM     15  O   UNL     1      28.055  58.409  57.059  0.00  0.00    +0.000 OA
BRANCH   9  17
ATOM     16  C   UNL     1      28.660  59.634  60.795  0.00  0.00    +0.000 C 
ATOM     17  O   UNL     1      28.293  59.659  59.442  0.00  0.00    +0.000 OA
ENDBRANCH   9  17
ENDBRANCH   7  12
ENDBRANCH   1   8
BRANCH   3  18
ATOM     18  O   UNL     1      34.173  58.121  59.117  0.00  0.00    +0.000 OA
ATOM     19  C   UNL     1      33.847  59.088  60.064  0.00  0.00    +0.000 C 
ENDBRANCH   3  18
BRANCH   4  20
ATOM     20  O   UNL     1      36.289  57.001  57.862  0.00  0.00    +0.000 OA
ATOM     21  C   UNL     1      36.125  55.588  57.955  0.00  0.00    +0.000 C 
ENDBRANCH   4  20
BRANCH   5  22
ATOM     22  O   UNL     1      36.657  57.504  55.175  0.00  0.00    +0.000 OA
ATOM     23  C   UNL     1      37.527  58.270  54.353  0.00  0.00    +0.000 C 
ENDBRANCH   5  22
TORSDOF 6
ENDMDL
MODEL 8
REMARK VINA RESULT:      -5.9      1.671      7.055
REMARK  Name = 
REMARK  6 active torsions:
REMARK  status: ('A' for Active; 'I' for Inactive)
REMARK    1  A    between atoms: O_2  and  C_3
REMARK    2  A    between atoms: C_6  and  C_7
REMARK    3  A    between atoms: C_8  and  C_9
REMARK    4  A    between atoms: C_11  and  O_12
REMARK    5  A    between atoms: C_14  and  O_15
REMARK    6  A    between atoms: C_17  and  O_18
REMARK                            x       y       z     vdW  Elec       q    Type
REMARK                         _______ _______ _______ _____ _____    ______ ____
ROOT
ATOM      1  C   UNL     1      35.739  58.465  58.719  0.00  0.00    +0.000 A 
ATOM      2  C   UNL     1      34.420  58.720  58.577  0.00  0.00    +0.000 A 
ATOM      3  C   UNL     1      33.771  58.977  57.392  0.00  0.00    +0.000 A 
ATOM      4  C   UNL     1      34.491  58.989  56.186  0.00  0.00    +0.000 A 
ATOM      5  C   UNL     1      35.836  58.733  56.297  0.00  0.00    +0.000 A 
ATOM      6  C   UNL     1      36.447  58.482  57.494  0.00  0.00    +0.000 A 
ENDROOT
BRANCH   1   8
ATOM      7  C   UNL     1      36.668  57.074  60.408  0.00  0.00    +0.000 C 
ATOM      8  C   UNL     1      36.552  58.184  59.860  0.00  0.00    +0.000 C 
BRANCH   7  12
ATOM      9  C   UNL     1      35.269  53.292  59.120  0.00  0.00    +0.000 A 
ATOM     10  C   UNL     1      34.350  54.138  59.715  0.00  0.00    +0.000 A 
ATOM     11  C   UNL     1      34.786  55.373  60.140  0.00  0.00    +0.000 A 
ATOM     12  C   UNL     1      36.039  55.861  60.039  0.00  0.00    +0.000 A 
ATOM     13  C   UNL     1      36.933  54.959  59.426  0.00  0.00    +0.000 A 
ATOM     14  C   UNL     1      36.554  53.733  58.990  0.00  0.00    +0.000 A 
ATOM     15  O   UNL     1      37.473  52.857  58.382  0.00  0.00    +0.000 OA
BRANCH   9  17
ATOM     16  C   UNL     1      34.571  50.966  59.507  0.00  0.00    +0.000 C 
ATOM     17  O   UNL     1      34.917  52.027  58.660  0.00  0.00    +0.000 OA
ENDBRANCH   9  17
ENDBRANCH   7  12
ENDBRANCH   1   8
BRANCH   3  18
ATOM     18  O   UNL     1      32.417  59.236  57.266  0.00  0.00    +0.000 OA
ATOM     19  C   UNL     1      31.832  60.422  57.700  0.00  0.00    +0.000 C 
ENDBRANCH   3  18
BRANCH   4  20
ATOM     20  O   UNL     1      33.861  59.245  54.980  0.00  0.00    +0.000 OA
ATOM     21  C   UNL     1      33.822  60.544  54.393  0.00  0.00    +0.000 C 
ENDBRANCH   4  20
BRANCH   5  22
ATOM     22  O   UNL     1      36.569  58.740  55.119  0.00  0.00    +0.000 OA
ATOM     23  C   UNL     1      37.197  57.561  54.631  0.00  0.00    +0.000 C 
ENDBRANCH   5  22
TORSDOF 6
ENDMDL
MODEL 9
REMARK VINA RESULT:      -5.7     12.025     14.388
REMARK  Name = 
REMARK  6 active torsions:
REMARK  status: ('A' for Active; 'I' for Inactive)
REMARK    1  A    between atoms: O_2  and  C_3
REMARK    2  A    between atoms: C_6  and  C_7
REMARK    3  A    between atoms: C_8  and  C_9
REMARK    4  A    between atoms: C_11  and  O_12
REMARK    5  A    between atoms: C_14  and  O_15
REMARK    6  A    between atoms: C_17  and  O_18
REMARK                            x       y       z     vdW  Elec       q    Type
REMARK                         _______ _______ _______ _____ _____    ______ ____
ROOT
ATOM      1  C   UNL     1      31.515  43.598  60.785  0.00  0.00    +0.000 A 
ATOM      2  C   UNL     1      31.562  43.558  59.435  0.00  0.00    +0.000 A 
ATOM      3  C   UNL     1      30.765  42.784  58.623  0.00  0.00    +0.000 A 
ATOM      4  C   UNL     1      29.797  41.939  59.189  0.00  0.00    +0.000 A 
ATOM      5  C   UNL     1      29.725  41.958  60.561  0.00  0.00    +0.000 A 
ATOM      6  C   UNL     1      30.534  42.740  61.336  0.00  0.00    +0.000 A 
ENDROOT
BRANCH   1   8
ATOM      7  C   UNL     1      31.793  45.181  62.535  0.00  0.00    +0.000 C 
ATOM      8  C   UNL     1      32.262  44.334  61.756  0.00  0.00    +0.000 C 
BRANCH   7  12
ATOM      9  C   UNL     1      27.933  46.918  62.638  0.00  0.00    +0.000 A 
ATOM     10  C   UNL     1      28.056  45.619  63.099  0.00  0.00    +0.000 A 
ATOM     11  C   UNL     1      29.304  45.037  63.074  0.00  0.00    +0.000 A 
ATOM     12  C   UNL     1      30.447  45.605  62.639  0.00  0.00    +0.000 A 
ATOM     13  C   UNL     1      30.265  46.927  62.181  0.00  0.00    +0.000 A 
ATOM     14  C   UNL     1      29.059  47.544  62.185  0.00  0.00    +0.000 A 
ATOM     15  O   UNL     1      28.912  48.865  61.721  0.00  0.00    +0.000 OA
BRANCH   9  17
ATOM     16  C   UNL     1      25.996  47.903  63.788  0.00  0.00    +0.000 C 
ATOM     17  O   UNL     1      26.713  47.584  62.627  0.00  0.00    +0.000 OA
ENDBRANCH   9  17
ENDBRANCH   7  12
ENDBRANCH   1   8
BRANCH   3  18
ATOM     18  O   UNL     1      30.827  42.757  57.241  0.00  0.00    +0.000 OA
ATOM     19  C   UNL     1      31.889  42.189  56.543  0.00  0.00    +0.000 C 
ENDBRANCH   3  18
BRANCH   4  20
ATOM     20  O   UNL     1      28.982  41.152  58.394  0.00  0.00    +0.000 OA
ATOM     21  C   UNL     1      27.658  41.537  58.032  0.00  0.00    +0.000 C 
ENDBRANCH   4  20
BRANCH   5  22
ATOM     22  O   UNL     1      28.775  41.130  61.144  0.00  0.00    +0.000 OA
ATOM     23  C   UNL     1      27.775  41.648  62.011  0.00  0.00    +0.000 C 
ENDBRANCH   5  22
TORSDOF 6
ENDMDL
MODEL 10
REMARK VINA RESULT:      -5.6      3.163      5.327
REMARK  Name = 
REMARK  6 active torsions:
REMARK  status: ('A' for Active; 'I' for Inactive)
REMARK    1  A    between atoms: O_2  and  C_3
REMARK    2  A    between atoms: C_6  and  C_7
REMARK    3  A    between atoms: C_8  and  C_9
REMARK    4  A    between atoms: C_11  and  O_12
REMARK    5  A    between atoms: C_14  and  O_15
REMARK    6  A    between atoms: C_17  and  O_18
REMARK                            x       y       z     vdW  Elec       q    Type
REMARK                         _______ _______ _______ _____ _____    ______ ____
ROOT
ATOM      1  C   UNL     1      35.506  50.915  60.646  0.00  0.00    +0.000 A 
ATOM      2  C   UNL     1      35.299  51.243  61.940  0.00  0.00    +0.000 A 
ATOM      3  C   UNL     1      36.266  51.328  62.915  0.00  0.00    +0.000 A 
ATOM      4  C   UNL     1      37.608  51.061  62.598  0.00  0.00    +0.000 A 
ATOM      5  C   UNL     1      37.850  50.724  61.288  0.00  0.00    +0.000 A 
ATOM      6  C   UNL     1      36.863  50.649  60.346  0.00  0.00    +0.000 A 
ENDROOT
BRANCH   1   8
ATOM      7  C   UNL     1      34.109  51.727  58.903  0.00  0.00    +0.000 C 
ATOM      8  C   UNL     1      34.623  50.785  59.530  0.00  0.00    +0.000 C 
BRANCH   7  12
ATOM      9  C   UNL     1      35.025  55.842  59.287  0.00  0.00    +0.000 A 
ATOM     10  C   UNL     1      33.930  55.369  59.987  0.00  0.00    +0.000 A 
ATOM     11  C   UNL     1      33.616  54.033  59.875  0.00  0.00    +0.000 A 
ATOM     12  C   UNL     1      34.273  53.112  59.141  0.00  0.00    +0.000 A 
ATOM     13  C   UNL     1      35.379  53.647  58.449  0.00  0.00    +0.000 A 
ATOM     14  C   UNL     1      35.730  54.954  58.525  0.00  0.00    +0.000 A 
ATOM     15  O   UNL     1      36.840  55.456  57.821  0.00  0.00    +0.000 OA
BRANCH   9  17
ATOM     16  C   UNL     1      34.631  58.231  58.855  0.00  0.00    +0.000 C 
ATOM     17  O   UNL     1      35.416  57.176  59.341  0.00  0.00    +0.000 OA
ENDBRANCH   9  17
ENDBRANCH   7  12
ENDBRANCH   1   8
BRANCH   3  18
ATOM     18  O   UNL     1      36.035  51.667  64.237  0.00  0.00    +0.000 OA
ATOM     19  C   UNL     1      34.910  51.245  64.939  0.00  0.00    +0.000 C 
ENDBRANCH   3  18
BRANCH   4  20
ATOM     20  O   UNL     1      38.600  51.140  63.560  0.00  0.00    +0.000 OA
ATOM     21  C   UNL     1      39.298  52.350  63.846  0.00  0.00    +0.000 C 
ENDBRANCH   4  20
BRANCH   5  22
ATOM     22  O   UNL     1      39.169  50.455  60.950  0.00  0.00    +0.000 OA
ATOM     23  C   UNL     1      39.964  51.407  60.255  0.00  0.00    +0.000 C 
ENDBRANCH   5  22
TORSDOF 6
ENDMDL
