REMARK  Name = 
REMARK  5 active torsions:
REMARK  status: ('A' for Active; 'I' for Inactive)
REMARK    1  A    between atoms: C_2  and  C_3
REMARK    2  A    between atoms: C_5  and  O_6
REMARK    3  A    between atoms: O_6  and  C_7
REMARK    4  A    between atoms: C_12  and  C_13
REMARK    5  A    between atoms: C_14  and  C_15
REMARK                            x       y       z     vdW  Elec       q    Type
REMARK                         _______ _______ _______ _____ _____    ______ ____
ROOT
ATOM      1  C   UNL     1      -1.678  -0.694   1.370  0.00  0.00    +0.000 A 
ATOM      2  C   UNL     1      -1.482  -1.281   2.593  0.00  0.00    +0.000 A 
ATOM      3  C   UNL     1      -0.249  -1.595   3.081  0.00  0.00    +0.000 A 
ATOM      4  O   UNL     1      -0.070  -2.195   4.338  0.00  0.00    +0.000 OA
ATOM      5  C   UNL     1       0.823  -1.299   2.291  0.00  0.00    +0.000 A 
ATOM      6  C   UNL     1       0.701  -0.709   1.049  0.00  0.00    +0.000 A 
ATOM      7  C   UNL     1      -0.567  -0.422   0.624  0.00  0.00    +0.000 A 
ENDROOT
BRANCH   6   8
ATOM      8  C   UNL     1       1.912  -0.430   0.273  0.00  0.00    +0.000 C 
ATOM      9  C   UNL     1       3.110  -0.700   0.672  0.00  0.00    +0.000 C 
BRANCH   9  10
ATOM     10  C   UNL     1       4.366  -0.467  -0.012  0.00  0.00    +0.000 A 
ATOM     11  C   UNL     1       4.483   0.106  -1.254  0.00  0.00    +0.000 A 
ATOM     12  C   UNL     1       5.724   0.304  -1.861  0.00  0.00    +0.000 A 
ATOM     13  C   UNL     1       6.864  -0.088  -1.192  0.00  0.00    +0.000 A 
ATOM     14  O   UNL     1       8.084   0.134  -1.849  0.00  0.00    +0.000 OA
ATOM     15  C   UNL     1       6.782  -0.661   0.042  0.00  0.00    +0.000 A 
ATOM     16  C   UNL     1       5.540  -0.838   0.604  0.00  0.00    +0.000 A 
ENDBRANCH   9  10
ENDBRANCH   6   8
BRANCH   1  17
ATOM     17  O   UNL     1      -2.996  -0.461   1.067  0.00  0.00    +0.000 OA
BRANCH  17  20
ATOM     18  C   UNL     1      -4.797   0.442  -1.837  0.00  0.00    +0.000 C 
ATOM     19  O   UNL     1      -4.581   0.312  -0.350  0.00  0.00    +0.000 OA
ATOM     20  C   UNL     1      -3.083   0.192  -0.314  0.00  0.00    +0.000 C 
ATOM     21  C   UNL     1      -2.709   1.758   0.245  0.00  0.00    +0.000 C 
ATOM     22  O   UNL     1      -3.734   1.917   1.313  0.00  0.00    +0.000 OA
ATOM     23  C   UNL     1      -3.665   2.502  -0.924  0.00  0.00    +0.000 C 
ATOM     24  O   UNL     1      -2.518   3.348  -1.367  0.00  0.00    +0.000 OA
ATOM     25  C   UNL     1      -3.442   1.411  -2.199  0.00  0.00    +0.000 C 
ATOM     26  O   UNL     1      -4.193   2.269  -3.148  0.00  0.00    +0.000 OA
BRANCH  18  28
ATOM     27  O   UNL     1      -4.646  -1.932  -1.507  0.00  0.00    +0.000 OA
ATOM     28  C   UNL     1      -3.975  -0.922  -2.168  0.00  0.00    +0.000 C 
ENDBRANCH  18  28
ENDBRANCH  17  20
ENDBRANCH   1  17
TORSDOF 5
