MODEL 1
REMARK VINA RESULT:      -6.2      0.000      0.000
REMARK  Name = 
REMARK  4 active torsions:
REMARK  status: ('A' for Active; 'I' for Inactive)
REMARK    1  A    between atoms: O_2  and  C_3
REMARK    2  A    between atoms: C_5  and  C_6
REMARK    3  A    between atoms: C_7  and  C_8
REMARK    4  A    between atoms: C_17  and  O_18
REMARK                            x       y       z     vdW  Elec       q    Type
REMARK                         _______ _______ _______ _____ _____    ______ ____
ROOT
ATOM      1  C   UNL     1      36.682  58.115  55.217  0.00  0.00    +0.000 A 
ATOM      2  C   UNL     1      36.359  56.925  55.833  0.00  0.00    +0.000 A 
ATOM      3  C   UNL     1      36.237  56.900  57.226  0.00  0.00    +0.000 A 
ATOM      4  C   UNL     1      36.449  58.073  57.911  0.00  0.00    +0.000 A 
ATOM      5  C   UNL     1      36.773  59.262  57.295  0.00  0.00    +0.000 A 
ATOM      6  C   UNL     1      36.893  59.290  55.924  0.00  0.00    +0.000 A 
ENDROOT
BRANCH   1   8
ATOM      7  C   UNL     1      35.821  58.781  53.029  0.00  0.00    +0.000 C 
ATOM      8  O   UNL     1      36.802  58.132  53.815  0.00  0.00    +0.000 OA
ENDBRANCH   1   8
BRANCH   3   9
ATOM      9  C   UNL     1      35.899  55.638  57.827  0.00  0.00    +0.000 C 
ATOM     10  C   UNL     1      36.676  54.934  58.611  0.00  0.00    +0.000 C 
BRANCH  10  11
ATOM     11  C   UNL     1      36.147  53.671  59.123  0.00  0.00    +0.000 A 
ATOM     12  C   UNL     1      35.969  52.559  58.327  0.00  0.00    +0.000 A 
ATOM     13  C   UNL     1      35.467  51.377  58.834  0.00  0.00    +0.000 A 
ATOM     14  C   UNL     1      35.120  51.256  60.164  0.00  0.00    +0.000 A 
ATOM     15  O   UNL     1      34.612  50.057  60.681  0.00  0.00    +0.000 OA
ATOM     16  C   UNL     1      35.298  52.367  60.962  0.00  0.00    +0.000 A 
ATOM     17  O   UNL     1      34.942  52.227  62.306  0.00  0.00    +0.000 OA
ATOM     18  C   UNL     1      35.799  53.547  60.456  0.00  0.00    +0.000 A 
ENDBRANCH  10  11
ENDBRANCH   3   9
BRANCH   5  19
ATOM     19  O   UNL     1      36.967  60.391  58.087  0.00  0.00    +0.000 OA
ATOM     20  C   UNL     1      37.864  60.270  59.186  0.00  0.00    +0.000 C 
ENDBRANCH   5  19
TORSDOF 4
ENDMDL
MODEL 2
REMARK VINA RESULT:      -6.2      2.171      7.615
REMARK  Name = 
REMARK  4 active torsions:
REMARK  status: ('A' for Active; 'I' for Inactive)
REMARK    1  A    between atoms: O_2  and  C_3
REMARK    2  A    between atoms: C_5  and  C_6
REMARK    3  A    between atoms: C_7  and  C_8
REMARK    4  A    between atoms: C_17  and  O_18
REMARK                            x       y       z     vdW  Elec       q    Type
REMARK                         _______ _______ _______ _____ _____    ______ ____
ROOT
ATOM      1  C   UNL     1      35.741  53.707  60.965  0.00  0.00    +0.000 A 
ATOM      2  C   UNL     1      35.423  54.592  59.958  0.00  0.00    +0.000 A 
ATOM      3  C   UNL     1      36.402  55.488  59.515  0.00  0.00    +0.000 A 
ATOM      4  C   UNL     1      37.638  55.437  60.114  0.00  0.00    +0.000 A 
ATOM      5  C   UNL     1      37.955  54.551  61.122  0.00  0.00    +0.000 A 
ATOM      6  C   UNL     1      36.995  53.668  61.559  0.00  0.00    +0.000 A 
ENDROOT
BRANCH   1   8
ATOM      7  C   UNL     1      35.066  51.441  61.584  0.00  0.00    +0.000 C 
ATOM      8  O   UNL     1      34.751  52.808  61.405  0.00  0.00    +0.000 OA
ENDBRANCH   1   8
BRANCH   3   9
ATOM      9  C   UNL     1      36.027  56.393  58.463  0.00  0.00    +0.000 C 
ATOM     10  C   UNL     1      36.377  56.287  57.205  0.00  0.00    +0.000 C 
BRANCH  10  11
ATOM     11  C   UNL     1      35.892  57.312  56.284  0.00  0.00    +0.000 A 
ATOM     12  C   UNL     1      34.850  58.161  56.595  0.00  0.00    +0.000 A 
ATOM     13  C   UNL     1      34.409  59.123  55.707  0.00  0.00    +0.000 A 
ATOM     14  C   UNL     1      34.993  59.277  54.466  0.00  0.00    +0.000 A 
ATOM     15  O   UNL     1      34.548  60.252  53.564  0.00  0.00    +0.000 OA
ATOM     16  C   UNL     1      36.034  58.429  54.154  0.00  0.00    +0.000 A 
ATOM     17  O   UNL     1      36.614  58.599  52.893  0.00  0.00    +0.000 OA
ATOM     18  C   UNL     1      36.475  57.469  55.040  0.00  0.00    +0.000 A 
ENDBRANCH  10  11
ENDBRANCH   3   9
BRANCH   5  19
ATOM     19  O   UNL     1      39.241  54.587  61.659  0.00  0.00    +0.000 OA
ATOM     20  C   UNL     1      40.303  54.112  60.839  0.00  0.00    +0.000 C 
ENDBRANCH   5  19
TORSDOF 4
ENDMDL
MODEL 3
REMARK VINA RESULT:      -6.2      2.074      7.849
REMARK  Name = 
REMARK  4 active torsions:
REMARK  status: ('A' for Active; 'I' for Inactive)
REMARK    1  A    between atoms: O_2  and  C_3
REMARK    2  A    between atoms: C_5  and  C_6
REMARK    3  A    between atoms: C_7  and  C_8
REMARK    4  A    between atoms: C_17  and  O_18
REMARK                            x       y       z     vdW  Elec       q    Type
REMARK                         _______ _______ _______ _____ _____    ______ ____
ROOT
ATOM      1  C   UNL     1      35.834  53.002  60.885  0.00  0.00    +0.000 A 
ATOM      2  C   UNL     1      35.436  54.023  60.048  0.00  0.00    +0.000 A 
ATOM      3  C   UNL     1      36.239  54.342  58.948  0.00  0.00    +0.000 A 
ATOM      4  C   UNL     1      37.391  53.615  58.759  0.00  0.00    +0.000 A 
ATOM      5  C   UNL     1      37.788  52.595  59.597  0.00  0.00    +0.000 A 
ATOM      6  C   UNL     1      37.000  52.278  60.680  0.00  0.00    +0.000 A 
ENDROOT
BRANCH   1   8
ATOM      7  C   UNL     1      35.392  51.639  62.864  0.00  0.00    +0.000 C 
ATOM      8  O   UNL     1      35.020  52.686  61.989  0.00  0.00    +0.000 OA
ENDBRANCH   1   8
BRANCH   3   9
ATOM      9  C   UNL     1      35.786  55.413  58.101  0.00  0.00    +0.000 C 
ATOM     10  C   UNL     1      36.550  56.162  57.346  0.00  0.00    +0.000 C 
BRANCH  10  11
ATOM     11  C   UNL     1      35.897  57.204  56.556  0.00  0.00    +0.000 A 
ATOM     12  C   UNL     1      34.931  58.040  57.075  0.00  0.00    +0.000 A 
ATOM     13  C   UNL     1      34.329  59.017  56.307  0.00  0.00    +0.000 A 
ATOM     14  C   UNL     1      34.667  59.200  54.982  0.00  0.00    +0.000 A 
ATOM     15  O   UNL     1      34.058  60.191  54.202  0.00  0.00    +0.000 OA
ATOM     16  C   UNL     1      35.633  58.365  54.461  0.00  0.00    +0.000 A 
ATOM     17  O   UNL     1      35.963  58.564  53.117  0.00  0.00    +0.000 OA
ATOM     18  C   UNL     1      36.235  57.389  55.227  0.00  0.00    +0.000 A 
ENDBRANCH  10  11
ENDBRANCH   3   9
BRANCH   5  19
ATOM     19  O   UNL     1      38.975  51.924  59.312  0.00  0.00    +0.000 OA
ATOM     20  C   UNL     1      39.805  52.473  58.294  0.00  0.00    +0.000 C 
ENDBRANCH   5  19
TORSDOF 4
ENDMDL
MODEL 4
REMARK VINA RESULT:      -6.2      2.220      7.580
REMARK  Name = 
REMARK  4 active torsions:
REMARK  status: ('A' for Active; 'I' for Inactive)
REMARK    1  A    between atoms: O_2  and  C_3
REMARK    2  A    between atoms: C_5  and  C_6
REMARK    3  A    between atoms: C_7  and  C_8
REMARK    4  A    between atoms: C_17  and  O_18
REMARK                            x       y       z     vdW  Elec       q    Type
REMARK                         _______ _______ _______ _____ _____    ______ ____
ROOT
ATOM      1  C   UNL     1      38.244  54.065  60.740  0.00  0.00    +0.000 A 
ATOM      2  C   UNL     1      37.952  54.797  59.608  0.00  0.00    +0.000 A 
ATOM      3  C   UNL     1      36.623  54.868  59.178  0.00  0.00    +0.000 A 
ATOM      4  C   UNL     1      35.672  54.199  59.911  0.00  0.00    +0.000 A 
ATOM      5  C   UNL     1      35.965  53.468  61.042  0.00  0.00    +0.000 A 
ATOM      6  C   UNL     1      37.271  53.396  61.469  0.00  0.00    +0.000 A 
ENDROOT
BRANCH   1   8
ATOM      7  C   UNL     1      40.593  53.590  60.266  0.00  0.00    +0.000 C 
ATOM      8  O   UNL     1      39.583  53.999  61.167  0.00  0.00    +0.000 OA
ENDBRANCH   1   8
BRANCH   3   9
ATOM      9  C   UNL     1      36.364  55.642  57.993  0.00  0.00    +0.000 C 
ATOM     10  C   UNL     1      35.969  56.890  57.969  0.00  0.00    +0.000 C 
BRANCH  10  11
ATOM     11  C   UNL     1      35.760  57.503  56.659  0.00  0.00    +0.000 A 
ATOM     12  C   UNL     1      36.550  57.216  55.566  0.00  0.00    +0.000 A 
ATOM     13  C   UNL     1      36.332  57.809  54.338  0.00  0.00    +0.000 A 
ATOM     14  C   UNL     1      35.312  58.718  54.150  0.00  0.00    +0.000 A 
ATOM     15  O   UNL     1      35.088  59.321  52.906  0.00  0.00    +0.000 OA
ATOM     16  C   UNL     1      34.520  59.007  55.242  0.00  0.00    +0.000 A 
ATOM     17  O   UNL     1      33.491  59.930  55.035  0.00  0.00    +0.000 OA
ATOM     18  C   UNL     1      34.737  58.415  56.469  0.00  0.00    +0.000 A 
ENDBRANCH  10  11
ENDBRANCH   3   9
BRANCH   5  19
ATOM     19  O   UNL     1      34.922  52.829  61.710  0.00  0.00    +0.000 OA
ATOM     20  C   UNL     1      35.204  51.563  62.298  0.00  0.00    +0.000 C 
ENDBRANCH   5  19
TORSDOF 4
ENDMDL
MODEL 5
REMARK VINA RESULT:      -6.2      0.481      2.854
REMARK  Name = 
REMARK  4 active torsions:
REMARK  status: ('A' for Active; 'I' for Inactive)
REMARK    1  A    between atoms: O_2  and  C_3
REMARK    2  A    between atoms: C_5  and  C_6
REMARK    3  A    between atoms: C_7  and  C_8
REMARK    4  A    between atoms: C_17  and  O_18
REMARK                            x       y       z     vdW  Elec       q    Type
REMARK                         _______ _______ _______ _____ _____    ______ ____
ROOT
ATOM      1  C   UNL     1      36.660  59.088  57.408  0.00  0.00    +0.000 A 
ATOM      2  C   UNL     1      36.425  57.850  57.969  0.00  0.00    +0.000 A 
ATOM      3  C   UNL     1      36.298  56.743  57.123  0.00  0.00    +0.000 A 
ATOM      4  C   UNL     1      36.414  56.950  55.769  0.00  0.00    +0.000 A 
ATOM      5  C   UNL     1      36.649  58.188  55.210  0.00  0.00    +0.000 A 
ATOM      6  C   UNL     1      36.776  59.280  56.039  0.00  0.00    +0.000 A 
ENDROOT
BRANCH   1   8
ATOM      7  C   UNL     1      37.792  60.209  59.261  0.00  0.00    +0.000 C 
ATOM      8  O   UNL     1      36.788  60.197  58.265  0.00  0.00    +0.000 OA
ENDBRANCH   1   8
BRANCH   3   9
ATOM      9  C   UNL     1      36.053  55.472  57.749  0.00  0.00    +0.000 C 
ATOM     10  C   UNL     1      35.354  55.281  58.840  0.00  0.00    +0.000 C 
BRANCH  10  11
ATOM     11  C   UNL     1      35.219  53.908  59.321  0.00  0.00    +0.000 A 
ATOM     12  C   UNL     1      35.137  52.824  58.471  0.00  0.00    +0.000 A 
ATOM     13  C   UNL     1      35.011  51.536  58.951  0.00  0.00    +0.000 A 
ATOM     14  C   UNL     1      34.960  51.274  60.304  0.00  0.00    +0.000 A 
ATOM     15  O   UNL     1      34.832  49.967  60.793  0.00  0.00    +0.000 OA
ATOM     16  C   UNL     1      35.042  52.356  61.155  0.00  0.00    +0.000 A 
ATOM     17  O   UNL     1      34.989  52.073  62.523  0.00  0.00    +0.000 OA
ATOM     18  C   UNL     1      35.168  53.643  60.677  0.00  0.00    +0.000 A 
ENDBRANCH  10  11
ENDBRANCH   3   9
BRANCH   5  19
ATOM     19  O   UNL     1      36.749  58.284  53.824  0.00  0.00    +0.000 OA
ATOM     20  C   UNL     1      35.611  58.772  53.121  0.00  0.00    +0.000 C 
ENDBRANCH   5  19
TORSDOF 4
ENDMDL
MODEL 6
REMARK VINA RESULT:      -6.2      2.087      7.619
REMARK  Name = 
REMARK  4 active torsions:
REMARK  status: ('A' for Active; 'I' for Inactive)
REMARK    1  A    between atoms: O_2  and  C_3
REMARK    2  A    between atoms: C_5  and  C_6
REMARK    3  A    between atoms: C_7  and  C_8
REMARK    4  A    between atoms: C_17  and  O_18
REMARK                            x       y       z     vdW  Elec       q    Type
REMARK                         _______ _______ _______ _____ _____    ______ ____
ROOT
ATOM      1  C   UNL     1      37.883  53.086  59.739  0.00  0.00    +0.000 A 
ATOM      2  C   UNL     1      37.441  54.106  58.924  0.00  0.00    +0.000 A 
ATOM      3  C   UNL     1      36.142  54.595  59.102  0.00  0.00    +0.000 A 
ATOM      4  C   UNL     1      35.371  54.027  60.088  0.00  0.00    +0.000 A 
ATOM      5  C   UNL     1      35.813  53.007  60.902  0.00  0.00    +0.000 A 
ATOM      6  C   UNL     1      37.090  52.524  60.731  0.00  0.00    +0.000 A 
ENDROOT
BRANCH   1   8
ATOM      7  C   UNL     1      39.747  52.543  58.256  0.00  0.00    +0.000 C 
ATOM      8  O   UNL     1      39.191  52.601  59.555  0.00  0.00    +0.000 OA
ENDBRANCH   1   8
BRANCH   3   9
ATOM      9  C   UNL     1      35.722  55.659  58.230  0.00  0.00    +0.000 C 
ATOM     10  C   UNL     1      36.447  56.196  57.281  0.00  0.00    +0.000 C 
BRANCH  10  11
ATOM     11  C   UNL     1      35.839  57.271  56.499  0.00  0.00    +0.000 A 
ATOM     12  C   UNL     1      34.880  58.118  57.015  0.00  0.00    +0.000 A 
ATOM     13  C   UNL     1      34.321  59.127  56.255  0.00  0.00    +0.000 A 
ATOM     14  C   UNL     1      34.696  59.332  54.944  0.00  0.00    +0.000 A 
ATOM     15  O   UNL     1      34.130  60.355  54.172  0.00  0.00    +0.000 OA
ATOM     16  C   UNL     1      35.654  58.486  54.426  0.00  0.00    +0.000 A 
ATOM     17  O   UNL     1      36.023  58.707  53.096  0.00  0.00    +0.000 OA
ATOM     18  C   UNL     1      36.214  57.479  55.184  0.00  0.00    +0.000 A 
ENDBRANCH  10  11
ENDBRANCH   3   9
BRANCH   5  19
ATOM     19  O   UNL     1      34.946  52.504  61.870  0.00  0.00    +0.000 OA
ATOM     20  C   UNL     1      35.520  51.737  62.923  0.00  0.00    +0.000 C 
ENDBRANCH   5  19
TORSDOF 4
ENDMDL
MODEL 7
REMARK VINA RESULT:      -6.2      2.666      3.858
REMARK  Name = 
REMARK  4 active torsions:
REMARK  status: ('A' for Active; 'I' for Inactive)
REMARK    1  A    between atoms: O_2  and  C_3
REMARK    2  A    between atoms: C_5  and  C_6
REMARK    3  A    between atoms: C_7  and  C_8
REMARK    4  A    between atoms: C_17  and  O_18
REMARK                            x       y       z     vdW  Elec       q    Type
REMARK                         _______ _______ _______ _____ _____    ______ ____
ROOT
ATOM      1  C   UNL     1      33.078  59.756  56.291  0.00  0.00    +0.000 A 
ATOM      2  C   UNL     1      33.655  58.879  57.184  0.00  0.00    +0.000 A 
ATOM      3  C   UNL     1      34.769  58.139  56.773  0.00  0.00    +0.000 A 
ATOM      4  C   UNL     1      35.232  58.329  55.493  0.00  0.00    +0.000 A 
ATOM      5  C   UNL     1      34.653  59.206  54.601  0.00  0.00    +0.000 A 
ATOM      6  C   UNL     1      33.557  59.936  55.001  0.00  0.00    +0.000 A 
ENDROOT
BRANCH   1   8
ATOM      7  C   UNL     1      30.886  60.728  55.817  0.00  0.00    +0.000 C 
ATOM      8  O   UNL     1      31.957  60.498  56.711  0.00  0.00    +0.000 OA
ENDBRANCH   1   8
BRANCH   3   9
ATOM      9  C   UNL     1      35.340  57.236  57.736  0.00  0.00    +0.000 C 
ATOM     10  C   UNL     1      34.728  56.763  58.793  0.00  0.00    +0.000 C 
BRANCH  10  11
ATOM     11  C   UNL     1      35.481  55.853  59.654  0.00  0.00    +0.000 A 
ATOM     12  C   UNL     1      36.825  56.017  59.919  0.00  0.00    +0.000 A 
ATOM     13  C   UNL     1      37.515  55.144  60.736  0.00  0.00    +0.000 A 
ATOM     14  C   UNL     1      36.889  54.064  61.324  0.00  0.00    +0.000 A 
ATOM     15  O   UNL     1      37.587  53.177  62.154  0.00  0.00    +0.000 OA
ATOM     16  C   UNL     1      35.546  53.898  61.060  0.00  0.00    +0.000 A 
ATOM     17  O   UNL     1      34.928  52.799  61.664  0.00  0.00    +0.000 OA
ATOM     18  C   UNL     1      34.856  54.770  60.245  0.00  0.00    +0.000 A 
ENDBRANCH  10  11
ENDBRANCH   3   9
BRANCH   5  19
ATOM     19  O   UNL     1      35.204  59.319  53.326  0.00  0.00    +0.000 OA
ATOM     20  C   UNL     1      36.508  58.784  53.130  0.00  0.00    +0.000 C 
ENDBRANCH   5  19
TORSDOF 4
ENDMDL
MODEL 8
REMARK VINA RESULT:      -6.2      2.698      3.498
REMARK  Name = 
REMARK  4 active torsions:
REMARK  status: ('A' for Active; 'I' for Inactive)
REMARK    1  A    between atoms: O_2  and  C_3
REMARK    2  A    between atoms: C_5  and  C_6
REMARK    3  A    between atoms: C_7  and  C_8
REMARK    4  A    between atoms: C_17  and  O_18
REMARK                            x       y       z     vdW  Elec       q    Type
REMARK                         _______ _______ _______ _____ _____    ______ ____
ROOT
ATOM      1  C   UNL     1      34.722  59.201  54.518  0.00  0.00    +0.000 A 
ATOM      2  C   UNL     1      35.245  58.365  55.482  0.00  0.00    +0.000 A 
ATOM      3  C   UNL     1      34.660  58.357  56.753  0.00  0.00    +0.000 A 
ATOM      4  C   UNL     1      33.589  59.189  56.974  0.00  0.00    +0.000 A 
ATOM      5  C   UNL     1      33.067  60.024  56.010  0.00  0.00    +0.000 A 
ATOM      6  C   UNL     1      33.639  60.035  54.759  0.00  0.00    +0.000 A 
ENDROOT
BRANCH   1   8
ATOM      7  C   UNL     1      36.672  58.837  53.091  0.00  0.00    +0.000 C 
ATOM      8  O   UNL     1      35.314  59.204  53.242  0.00  0.00    +0.000 OA
ENDBRANCH   1   8
BRANCH   3   9
ATOM      9  C   UNL     1      35.237  57.470  57.727  0.00  0.00    +0.000 C 
ATOM     10  C   UNL     1      34.570  56.769  58.609  0.00  0.00    +0.000 C 
BRANCH  10  11
ATOM     11  C   UNL     1      35.342  55.922  59.517  0.00  0.00    +0.000 A 
ATOM     12  C   UNL     1      36.669  56.158  59.810  0.00  0.00    +0.000 A 
ATOM     13  C   UNL     1      37.377  55.343  60.671  0.00  0.00    +0.000 A 
ATOM     14  C   UNL     1      36.787  54.254  61.278  0.00  0.00    +0.000 A 
ATOM     15  O   UNL     1      37.503  53.427  62.153  0.00  0.00    +0.000 OA
ATOM     16  C   UNL     1      35.460  54.016  60.987  0.00  0.00    +0.000 A 
ATOM     17  O   UNL     1      34.878  52.909  61.610  0.00  0.00    +0.000 OA
ATOM     18  C   UNL     1      34.752  54.830  60.127  0.00  0.00    +0.000 A 
ENDBRANCH  10  11
ENDBRANCH   3   9
BRANCH   5  19
ATOM     19  O   UNL     1      31.978  60.827  56.344  0.00  0.00    +0.000 OA
ATOM     20  C   UNL     1      30.699  60.419  55.871  0.00  0.00    +0.000 C 
ENDBRANCH   5  19
TORSDOF 4
ENDMDL
MODEL 9
REMARK VINA RESULT:      -5.9      3.173      7.044
REMARK  Name = 
REMARK  4 active torsions:
REMARK  status: ('A' for Active; 'I' for Inactive)
REMARK    1  A    between atoms: O_2  and  C_3
REMARK    2  A    between atoms: C_5  and  C_6
REMARK    3  A    between atoms: C_7  and  C_8
REMARK    4  A    between atoms: C_17  and  O_18
REMARK                            x       y       z     vdW  Elec       q    Type
REMARK                         _______ _______ _______ _____ _____    ______ ____
ROOT
ATOM      1  C   UNL     1      36.964  53.688  59.085  0.00  0.00    +0.000 A 
ATOM      2  C   UNL     1      36.171  54.608  58.434  0.00  0.00    +0.000 A 
ATOM      3  C   UNL     1      36.220  55.946  58.842  0.00  0.00    +0.000 A 
ATOM      4  C   UNL     1      37.063  56.272  59.878  0.00  0.00    +0.000 A 
ATOM      5  C   UNL     1      37.855  55.351  60.528  0.00  0.00    +0.000 A 
ATOM      6  C   UNL     1      37.810  54.035  60.130  0.00  0.00    +0.000 A 
ENDROOT
BRANCH   1   8
ATOM      7  C   UNL     1      35.665  51.750  58.359  0.00  0.00    +0.000 C 
ATOM      8  O   UNL     1      36.910  52.344  58.669  0.00  0.00    +0.000 OA
ENDBRANCH   1   8
BRANCH   3   9
ATOM      9  C   UNL     1      35.376  56.872  58.136  0.00  0.00    +0.000 C 
ATOM     10  C   UNL     1      35.702  57.522  57.047  0.00  0.00    +0.000 C 
BRANCH  10  11
ATOM     11  C   UNL     1      34.702  58.422  56.477  0.00  0.00    +0.000 A 
ATOM     12  C   UNL     1      34.764  58.878  55.176  0.00  0.00    +0.000 A 
ATOM     13  C   UNL     1      33.806  59.729  54.661  0.00  0.00    +0.000 A 
ATOM     14  C   UNL     1      32.742  60.161  55.425  0.00  0.00    +0.000 A 
ATOM     15  O   UNL     1      31.769  61.023  54.903  0.00  0.00    +0.000 OA
ATOM     16  C   UNL     1      32.678  59.706  56.725  0.00  0.00    +0.000 A 
ATOM     17  O   UNL     1      31.594  60.153  57.486  0.00  0.00    +0.000 OA
ATOM     18  C   UNL     1      33.634  58.856  57.241  0.00  0.00    +0.000 A 
ENDBRANCH  10  11
ENDBRANCH   3   9
BRANCH   5  19
ATOM     19  O   UNL     1      38.673  55.792  61.567  0.00  0.00    +0.000 OA
ATOM     20  C   UNL     1      38.675  57.188  61.846  0.00  0.00    +0.000 C 
ENDBRANCH   5  19
TORSDOF 4
ENDMDL
MODEL 10
REMARK VINA RESULT:      -5.9      2.605      3.320
REMARK  Name = 
REMARK  4 active torsions:
REMARK  status: ('A' for Active; 'I' for Inactive)
REMARK    1  A    between atoms: O_2  and  C_3
REMARK    2  A    between atoms: C_5  and  C_6
REMARK    3  A    between atoms: C_7  and  C_8
REMARK    4  A    between atoms: C_17  and  O_18
REMARK                            x       y       z     vdW  Elec       q    Type
REMARK                         _______ _______ _______ _____ _____    ______ ____
ROOT
ATOM      1  C   UNL     1      35.410  58.532  54.487  0.00  0.00    +0.000 A 
ATOM      2  C   UNL     1      35.977  57.674  55.405  0.00  0.00    +0.000 A 
ATOM      3  C   UNL     1      35.440  57.622  56.696  0.00  0.00    +0.000 A 
ATOM      4  C   UNL     1      34.370  58.435  56.982  0.00  0.00    +0.000 A 
ATOM      5  C   UNL     1      33.805  59.294  56.063  0.00  0.00    +0.000 A 
ATOM      6  C   UNL     1      34.329  59.347  54.792  0.00  0.00    +0.000 A 
ENDROOT
BRANCH   1   8
ATOM      7  C   UNL     1      37.186  59.235  52.963  0.00  0.00    +0.000 C 
ATOM      8  O   UNL     1      35.954  58.579  53.189  0.00  0.00    +0.000 OA
ENDBRANCH   1   8
BRANCH   3   9
ATOM      9  C   UNL     1      36.062  56.712  57.621  0.00  0.00    +0.000 C 
ATOM     10  C   UNL     1      35.436  55.983  58.510  0.00  0.00    +0.000 C 
BRANCH  10  11
ATOM     11  C   UNL     1      36.248  55.117  59.362  0.00  0.00    +0.000 A 
ATOM     12  C   UNL     1      35.757  54.521  60.505  0.00  0.00    +0.000 A 
ATOM     13  C   UNL     1      36.545  53.708  61.294  0.00  0.00    +0.000 A 
ATOM     14  C   UNL     1      37.863  53.453  60.974  0.00  0.00    +0.000 A 
ATOM     15  O   UNL     1      38.664  52.627  61.772  0.00  0.00    +0.000 OA
ATOM     16  C   UNL     1      38.356  54.048  59.831  0.00  0.00    +0.000 A 
ATOM     17  O   UNL     1      39.692  53.780  59.521  0.00  0.00    +0.000 OA
ATOM     18  C   UNL     1      37.569  54.861  59.042  0.00  0.00    +0.000 A 
ENDBRANCH  10  11
ENDBRANCH   3   9
BRANCH   5  19
ATOM     19  O   UNL     1      32.722  60.075  56.461  0.00  0.00    +0.000 OA
ATOM     20  C   UNL     1      31.821  60.504  55.446  0.00  0.00    +0.000 C 
ENDBRANCH   5  19
TORSDOF 4
ENDMDL
