REMARK  Name = 
REMARK  5 active torsions:
REMARK  status: ('A' for Active; 'I' for Inactive)
REMARK    1  A    between atoms: C_2  and  C_3
REMARK    2  A    between atoms: C_5  and  O_6
REMARK    3  A    between atoms: O_6  and  C_7
REMARK    4  A    between atoms: C_12  and  C_13
REMARK    5  A    between atoms: C_14  and  C_15
REMARK                            x       y       z     vdW  Elec       q    Type
REMARK                         _______ _______ _______ _____ _____    ______ ____
ROOT
ATOM      1  C   UNL     1      -0.804  -0.952   0.615  0.00  0.00    +0.000 A 
ATOM      2  C   UNL     1      -1.493   0.161   0.051  0.00  0.00    +0.000 A 
ATOM      3  C   UNL     1      -0.941   1.042  -0.800  0.00  0.00    +0.000 A 
ATOM      4  O   UNL     1      -1.725   2.127  -1.302  0.00  0.00    +0.000 OA
ATOM      5  C   UNL     1       0.360   0.851  -1.148  0.00  0.00    +0.000 A 
ATOM      6  C   UNL     1       1.143  -0.244  -0.635  0.00  0.00    +0.000 A 
ATOM      7  C   UNL     1       0.492  -1.078   0.227  0.00  0.00    +0.000 A 
ENDROOT
BRANCH   6   8
ATOM      8  C   UNL     1       2.465  -0.349  -1.195  0.00  0.00    +0.000 C 
ATOM      9  C   UNL     1       3.586  -0.173  -0.843  0.00  0.00    +0.000 C 
BRANCH   9  10
ATOM     10  C   UNL     1       4.894   0.015  -0.490  0.00  0.00    +0.000 A 
ATOM     11  C   UNL     1       5.175   0.325   0.879  0.00  0.00    +0.000 A 
ATOM     12  C   UNL     1       6.500   0.649   1.248  0.00  0.00    +0.000 A 
ATOM     13  C   UNL     1       7.509   0.676   0.326  0.00  0.00    +0.000 A 
ATOM     14  O   UNL     1       8.813   1.028   0.659  0.00  0.00    +0.000 OA
ATOM     15  C   UNL     1       7.245   0.361  -1.019  0.00  0.00    +0.000 A 
ATOM     16  C   UNL     1       5.985   0.045  -1.387  0.00  0.00    +0.000 A 
ENDBRANCH   9  10
ENDBRANCH   6   8
BRANCH   1  17
ATOM     17  O   UNL     1      -1.581  -1.685   1.449  0.00  0.00    +0.000 OA
BRANCH  17  20
ATOM     18  C   UNL     1      -4.711   0.012   1.484  0.00  0.00    +0.000 C 
ATOM     19  O   UNL     1      -3.268  -0.226   1.712  0.00  0.00    +0.000 OA
ATOM     20  C   UNL     1      -3.158  -1.602   1.157  0.00  0.00    +0.000 C 
ATOM     21  C   UNL     1      -2.970  -1.300  -0.519  0.00  0.00    +0.000 C 
ATOM     22  O   UNL     1      -3.060  -2.753  -0.897  0.00  0.00    +0.000 OA
ATOM     23  C   UNL     1      -4.727  -1.156  -0.694  0.00  0.00    +0.000 C 
ATOM     24  O   UNL     1      -4.608  -0.767  -2.139  0.00  0.00    +0.000 OA
ATOM     25  C   UNL     1      -4.623   0.470  -0.173  0.00  0.00    +0.000 C 
ATOM     26  O   UNL     1      -6.112   0.707  -0.286  0.00  0.00    +0.000 OA
BRANCH  18  28
ATOM     27  O   UNL     1      -5.841   2.159   1.831  0.00  0.00    +0.000 OA
ATOM     28  C   UNL     1      -4.544   1.655   1.945  0.00  0.00    +0.000 C 
ENDBRANCH  18  28
ENDBRANCH  17  20
ENDBRANCH   1  17
TORSDOF 5
