REMARK  Name = 
REMARK  8 active torsions:
REMARK  status: ('A' for Active; 'I' for Inactive)
REMARK    1  A    between atoms: C_2  and  O_4
REMARK    2  A    between atoms: O_4  and  C_5
REMARK    3  A    between atoms: C_8  and  C_9
REMARK    4  A    between atoms: C_10  and  C_11
REMARK    5  A    between atoms: C_13  and  O_14
REMARK    6  A    between atoms: O_14  and  C_15
REMARK    7  A    between atoms: C_19  and  O_20
REMARK    8  A    between atoms: O_20  and  C_21
REMARK                            x       y       z     vdW  Elec       q    Type
REMARK                         _______ _______ _______ _____ _____    ______ ____
ROOT
ATOM      1  C   UNL     1      -1.312   0.489  -0.272  0.00  0.00    +0.000 A 
ATOM      2  C   UNL     1      -2.224  -0.492   0.015  0.00  0.00    +0.000 A 
ATOM      3  C   UNL     1      -3.592  -0.252   0.044  0.00  0.00    +0.000 A 
ATOM      4  C   UNL     1      -4.006   1.046  -0.235  0.00  0.00    +0.000 A 
ATOM      5  C   UNL     1      -3.125   2.054  -0.527  0.00  0.00    +0.000 A 
ATOM      6  C   UNL     1      -1.779   1.752  -0.539  0.00  0.00    +0.000 A 
ENDROOT
BRANCH   1   8
ATOM      7  C   UNL     1       0.721  -0.865  -0.081  0.00  0.00    +0.000 C 
ATOM      8  C   UNL     1       0.131   0.277  -0.312  0.00  0.00    +0.000 C 
BRANCH   7  12
ATOM      9  C   UNL     1       4.960  -1.414  -0.216  0.00  0.00    +0.000 A 
ATOM     10  C   UNL     1       4.082  -2.430   0.077  0.00  0.00    +0.000 A 
ATOM     11  C   UNL     1       2.718  -2.269   0.124  0.00  0.00    +0.000 A 
ATOM     12  C   UNL     1       2.179  -1.037  -0.131  0.00  0.00    +0.000 A 
ATOM     13  C   UNL     1       3.019   0.007  -0.428  0.00  0.00    +0.000 A 
ATOM     14  C   UNL     1       4.392  -0.184  -0.469  0.00  0.00    +0.000 A 
BRANCH   9  15
ATOM     15  O   UNL     1       6.334  -1.557  -0.268  0.00  0.00    +0.000 OA
BRANCH  15  17
ATOM     16  C   UNL     1       8.622  -1.518   0.804  0.00  0.00    +0.000 C 
ATOM     17  C   UNL     1       7.133  -1.364   0.851  0.00  0.00    +0.000 C 
ATOM     18  O   UNL     1       6.533  -1.048   1.925  0.00  0.00    +0.000 OA
ENDBRANCH  15  17
ENDBRANCH   9  15
ENDBRANCH   7  12
ENDBRANCH   1   8
BRANCH   3  19
ATOM     19  O   UNL     1      -4.486  -1.273   0.340  0.00  0.00    +0.000 OA
BRANCH  19  20
ATOM     20  C   UNL     1      -5.044  -2.094  -0.618  0.00  0.00    +0.000 C 
ATOM     21  C   UNL     1      -5.987  -3.154  -0.195  0.00  0.00    +0.000 C 
ATOM     22  O   UNL     1      -4.739  -1.925  -1.829  0.00  0.00    +0.000 OA
ENDBRANCH  19  20
ENDBRANCH   3  19
BRANCH   5  23
ATOM     23  O   UNL     1      -3.504   3.359  -0.810  0.00  0.00    +0.000 OA
BRANCH  23  24
ATOM     24  C   UNL     1      -3.621   4.286   0.215  0.00  0.00    +0.000 C 
ATOM     25  C   UNL     1      -4.028   5.704  -0.051  0.00  0.00    +0.000 C 
ATOM     26  O   UNL     1      -3.376   3.903   1.382  0.00  0.00    +0.000 OA
ENDBRANCH  23  24
ENDBRANCH   5  23
TORSDOF 8
