REMARK  Name = 
REMARK  4 active torsions:
REMARK  status: ('A' for Active; 'I' for Inactive)
REMARK    1  A    between atoms: O_2  and  C_3
REMARK    2  A    between atoms: C_5  and  C_6
REMARK    3  A    between atoms: C_7  and  C_8
REMARK    4  A    between atoms: C_16  and  O_17
REMARK                            x       y       z     vdW  Elec       q    Type
REMARK                         _______ _______ _______ _____ _____    ______ ____
ROOT
ATOM      1  C   UNL     1      -3.228  -0.608   0.027  0.00  0.00    +0.000 A 
ATOM      2  C   UNL     1      -2.194  -1.477  -0.146  0.00  0.00    +0.000 A 
ATOM      3  C   UNL     1      -0.837  -1.040  -0.129  0.00  0.00    +0.000 A 
ATOM      4  C   UNL     1      -0.697   0.275   0.069  0.00  0.00    +0.000 A 
ATOM      5  C   UNL     1      -1.712   1.168   0.244  0.00  0.00    +0.000 A 
ATOM      6  C   UNL     1      -2.998   0.727   0.224  0.00  0.00    +0.000 A 
ENDROOT
BRANCH   1   8
ATOM      7  C   UNL     1      -4.861  -2.409  -0.190  0.00  0.00    +0.000 C 
ATOM      8  O   UNL     1      -4.546  -1.044   0.009  0.00  0.00    +0.000 OA
ENDBRANCH   1   8
BRANCH   3   9
ATOM      9  C   UNL     1       0.055  -2.112  -0.328  0.00  0.00    +0.000 C 
ATOM     10  C   UNL     1       1.300  -2.081  -0.370  0.00  0.00    +0.000 C 
BRANCH  10  11
ATOM     11  C   UNL     1       2.090  -0.908  -0.218  0.00  0.00    +0.000 A 
ATOM     12  C   UNL     1       1.801   0.375  -0.009  0.00  0.00    +0.000 A 
ATOM     13  C   UNL     1       2.711   1.375   0.111  0.00  0.00    +0.000 A 
ATOM     14  C   UNL     1       4.050   1.106   0.019  0.00  0.00    +0.000 A 
ATOM     15  O   UNL     1       5.007   2.077   0.133  0.00  0.00    +0.000 OA
ATOM     16  C   UNL     1       4.410  -0.205  -0.197  0.00  0.00    +0.000 A 
ATOM     17  C   UNL     1       3.468  -1.193  -0.314  0.00  0.00    +0.000 A 
ENDBRANCH  10  11
ENDBRANCH   3   9
BRANCH   5  18
ATOM     18  O   UNL     1      -1.395   2.510   0.440  0.00  0.00    +0.000 OA
ATOM     19  C   UNL     1      -2.426   3.462   0.625  0.00  0.00    +0.000 C 
ENDBRANCH   5  18
TORSDOF 4
