MODEL 1
REMARK VINA RESULT:      -5.9      0.000      0.000
REMARK  Name = 
REMARK  8 active torsions:
REMARK  status: ('A' for Active; 'I' for Inactive)
REMARK    1  A    between atoms: O_2  and  C_3
REMARK    2  A    between atoms: C_3  and  O_4
REMARK    3  A    between atoms: O_4  and  C_5
REMARK    4  A    between atoms: C_8  and  C_9
REMARK    5  A    between atoms: C_10  and  C_11
REMARK    6  A    between atoms: C_13  and  O_14
REMARK    7  A    between atoms: C_16  and  O_17
REMARK    8  A    between atoms: C_19  and  O_20
REMARK                            x       y       z     vdW  Elec       q    Type
REMARK                         _______ _______ _______ _____ _____    ______ ____
ROOT
ATOM      1  C   UNL     1      36.434  56.443  57.791  0.00  0.00    +0.000 C 
ATOM      2  C   UNL     1      36.021  55.187  57.787  0.00  0.00    +0.000 C 
ENDROOT
BRANCH   1   6
ATOM      3  C   UNL     1      34.211  59.243  55.439  0.00  0.00    +0.000 A 
ATOM      4  C   UNL     1      33.863  58.978  56.746  0.00  0.00    +0.000 A 
ATOM      5  C   UNL     1      34.588  58.073  57.490  0.00  0.00    +0.000 A 
ATOM      6  C   UNL     1      35.682  57.400  56.973  0.00  0.00    +0.000 A 
ATOM      7  C   UNL     1      36.020  57.674  55.664  0.00  0.00    +0.000 A 
ATOM      8  C   UNL     1      35.296  58.580  54.908  0.00  0.00    +0.000 A 
BRANCH   3   9
ATOM      9  O   UNL     1      33.489  60.160  54.654  0.00  0.00    +0.000 OA
BRANCH   9  10
ATOM     10  C   UNL     1      32.421  60.892  55.225  0.00  0.00    +0.000 C 
BRANCH  10  12
ATOM     11  C   UNL     1      30.395  60.281  56.006  0.00  0.00    +0.000 C 
ATOM     12  O   UNL     1      31.181  60.338  54.856  0.00  0.00    +0.000 OA
ENDBRANCH  10  12
ENDBRANCH   9  10
ENDBRANCH   3   9
ENDBRANCH   1   6
BRANCH   2  13
ATOM     13  C   UNL     1      36.644  54.128  58.532  0.00  0.00    +0.000 A 
ATOM     14  C   UNL     1      36.055  52.896  58.702  0.00  0.00    +0.000 A 
ATOM     15  C   UNL     1      36.673  51.895  59.422  0.00  0.00    +0.000 A 
ATOM     16  C   UNL     1      37.912  52.086  60.006  0.00  0.00    +0.000 A 
ATOM     17  C   UNL     1      38.482  53.335  59.820  0.00  0.00    +0.000 A 
ATOM     18  C   UNL     1      37.875  54.341  59.103  0.00  0.00    +0.000 A 
BRANCH  15  19
ATOM     19  O   UNL     1      36.076  50.641  59.596  0.00  0.00    +0.000 OA
ATOM     20  C   UNL     1      34.915  50.565  60.430  0.00  0.00    +0.000 C 
ENDBRANCH  15  19
BRANCH  16  21
ATOM     21  O   UNL     1      38.532  51.079  60.729  0.00  0.00    +0.000 OA
ATOM     22  C   UNL     1      39.378  50.114  60.134  0.00  0.00    +0.000 C 
ENDBRANCH  16  21
BRANCH  17  23
ATOM     23  O   UNL     1      39.745  53.544  60.408  0.00  0.00    +0.000 OA
ATOM     24  C   UNL     1      40.899  53.516  59.580  0.00  0.00    +0.000 C 
ENDBRANCH  17  23
ENDBRANCH   2  13
TORSDOF 8
ENDMDL
MODEL 2
REMARK VINA RESULT:      -5.9      0.303      2.588
REMARK  Name = 
REMARK  8 active torsions:
REMARK  status: ('A' for Active; 'I' for Inactive)
REMARK    1  A    between atoms: O_2  and  C_3
REMARK    2  A    between atoms: C_3  and  O_4
REMARK    3  A    between atoms: O_4  and  C_5
REMARK    4  A    between atoms: C_8  and  C_9
REMARK    5  A    between atoms: C_10  and  C_11
REMARK    6  A    between atoms: C_13  and  O_14
REMARK    7  A    between atoms: C_16  and  O_17
REMARK    8  A    between atoms: C_19  and  O_20
REMARK                            x       y       z     vdW  Elec       q    Type
REMARK                         _______ _______ _______ _____ _____    ______ ____
ROOT
ATOM      1  C   UNL     1      36.456  56.507  57.979  0.00  0.00    +0.000 C 
ATOM      2  C   UNL     1      36.195  55.213  57.889  0.00  0.00    +0.000 C 
ENDROOT
BRANCH   1   6
ATOM      3  C   UNL     1      34.219  59.144  55.459  0.00  0.00    +0.000 A 
ATOM      4  C   UNL     1      33.858  58.941  56.773  0.00  0.00    +0.000 A 
ATOM      5  C   UNL     1      34.588  58.088  57.572  0.00  0.00    +0.000 A 
ATOM      6  C   UNL     1      35.699  57.408  57.104  0.00  0.00    +0.000 A 
ATOM      7  C   UNL     1      36.050  57.620  55.786  0.00  0.00    +0.000 A 
ATOM      8  C   UNL     1      35.322  58.474  54.976  0.00  0.00    +0.000 A 
BRANCH   3   9
ATOM      9  O   UNL     1      33.493  60.009  54.619  0.00  0.00    +0.000 OA
BRANCH   9  10
ATOM     10  C   UNL     1      32.465  60.818  55.157  0.00  0.00    +0.000 C 
BRANCH  10  12
ATOM     11  C   UNL     1      30.430  60.307  55.988  0.00  0.00    +0.000 C 
ATOM     12  O   UNL     1      31.198  60.306  54.823  0.00  0.00    +0.000 OA
ENDBRANCH  10  12
ENDBRANCH   9  10
ENDBRANCH   3   9
ENDBRANCH   1   6
BRANCH   2  13
ATOM     13  C   UNL     1      36.845  54.200  58.673  0.00  0.00    +0.000 A 
ATOM     14  C   UNL     1      38.147  54.318  59.101  0.00  0.00    +0.000 A 
ATOM     15  C   UNL     1      38.751  53.331  59.852  0.00  0.00    +0.000 A 
ATOM     16  C   UNL     1      38.072  52.180  60.209  0.00  0.00    +0.000 A 
ATOM     17  C   UNL     1      36.763  52.087  59.765  0.00  0.00    +0.000 A 
ATOM     18  C   UNL     1      36.151  53.066  59.014  0.00  0.00    +0.000 A 
BRANCH  15  19
ATOM     19  O   UNL     1      40.075  53.448  60.289  0.00  0.00    +0.000 OA
ATOM     20  C   UNL     1      41.112  53.342  59.308  0.00  0.00    +0.000 C 
ENDBRANCH  15  19
BRANCH  16  21
ATOM     21  O   UNL     1      38.679  51.189  60.965  0.00  0.00    +0.000 OA
ATOM     22  C   UNL     1      39.365  50.094  60.389  0.00  0.00    +0.000 C 
ENDBRANCH  16  21
BRANCH  17  23
ATOM     23  O   UNL     1      36.059  50.920  60.121  0.00  0.00    +0.000 OA
ATOM     24  C   UNL     1      34.714  50.773  59.689  0.00  0.00    +0.000 C 
ENDBRANCH  17  23
ENDBRANCH   2  13
TORSDOF 8
ENDMDL
MODEL 3
REMARK VINA RESULT:      -5.7      0.901      1.733
REMARK  Name = 
REMARK  8 active torsions:
REMARK  status: ('A' for Active; 'I' for Inactive)
REMARK    1  A    between atoms: O_2  and  C_3
REMARK    2  A    between atoms: C_3  and  O_4
REMARK    3  A    between atoms: O_4  and  C_5
REMARK    4  A    between atoms: C_8  and  C_9
REMARK    5  A    between atoms: C_10  and  C_11
REMARK    6  A    between atoms: C_13  and  O_14
REMARK    7  A    between atoms: C_16  and  O_17
REMARK    8  A    between atoms: C_19  and  O_20
REMARK                            x       y       z     vdW  Elec       q    Type
REMARK                         _______ _______ _______ _____ _____    ______ ____
ROOT
ATOM      1  C   UNL     1      36.337  56.422  58.013  0.00  0.00    +0.000 C 
ATOM      2  C   UNL     1      36.076  55.138  57.838  0.00  0.00    +0.000 C 
ENDROOT
BRANCH   1   6
ATOM      3  C   UNL     1      34.223  59.199  55.535  0.00  0.00    +0.000 A 
ATOM      4  C   UNL     1      35.300  58.489  55.049  0.00  0.00    +0.000 A 
ATOM      5  C   UNL     1      35.971  57.599  55.859  0.00  0.00    +0.000 A 
ATOM      6  C   UNL     1      35.602  57.377  57.175  0.00  0.00    +0.000 A 
ATOM      7  C   UNL     1      34.523  58.094  57.650  0.00  0.00    +0.000 A 
ATOM      8  C   UNL     1      33.845  58.991  56.843  0.00  0.00    +0.000 A 
BRANCH   3   9
ATOM      9  O   UNL     1      33.520  60.115  54.731  0.00  0.00    +0.000 OA
BRANCH   9  10
ATOM     10  C   UNL     1      33.498  61.486  55.076  0.00  0.00    +0.000 C 
BRANCH  10  12
ATOM     11  C   UNL     1      35.162  62.404  53.859  0.00  0.00    +0.000 C 
ATOM     12  O   UNL     1      34.804  62.005  55.147  0.00  0.00    +0.000 OA
ENDBRANCH  10  12
ENDBRANCH   9  10
ENDBRANCH   3   9
ENDBRANCH   1   6
BRANCH   2  13
ATOM     13  C   UNL     1      36.705  54.077  58.574  0.00  0.00    +0.000 A 
ATOM     14  C   UNL     1      36.099  52.860  58.784  0.00  0.00    +0.000 A 
ATOM     15  C   UNL     1      36.723  51.857  59.496  0.00  0.00    +0.000 A 
ATOM     16  C   UNL     1      37.987  52.031  60.030  0.00  0.00    +0.000 A 
ATOM     17  C   UNL     1      38.574  53.265  59.805  0.00  0.00    +0.000 A 
ATOM     18  C   UNL     1      37.960  54.273  59.096  0.00  0.00    +0.000 A 
BRANCH  15  19
ATOM     19  O   UNL     1      36.109  50.618  59.710  0.00  0.00    +0.000 OA
ATOM     20  C   UNL     1      35.031  50.562  60.651  0.00  0.00    +0.000 C 
ENDBRANCH  15  19
BRANCH  16  21
ATOM     21  O   UNL     1      38.613  51.022  60.745  0.00  0.00    +0.000 OA
ATOM     22  C   UNL     1      39.434  50.044  60.136  0.00  0.00    +0.000 C 
ENDBRANCH  16  21
BRANCH  17  23
ATOM     23  O   UNL     1      39.862  53.457  60.343  0.00  0.00    +0.000 OA
ATOM     24  C   UNL     1      40.980  53.434  59.467  0.00  0.00    +0.000 C 
ENDBRANCH  17  23
ENDBRANCH   2  13
TORSDOF 8
ENDMDL
MODEL 4
REMARK VINA RESULT:      -5.6      1.624      3.311
REMARK  Name = 
REMARK  8 active torsions:
REMARK  status: ('A' for Active; 'I' for Inactive)
REMARK    1  A    between atoms: O_2  and  C_3
REMARK    2  A    between atoms: C_3  and  O_4
REMARK    3  A    between atoms: O_4  and  C_5
REMARK    4  A    between atoms: C_8  and  C_9
REMARK    5  A    between atoms: C_10  and  C_11
REMARK    6  A    between atoms: C_13  and  O_14
REMARK    7  A    between atoms: C_16  and  O_17
REMARK    8  A    between atoms: C_19  and  O_20
REMARK                            x       y       z     vdW  Elec       q    Type
REMARK                         _______ _______ _______ _____ _____    ______ ____
ROOT
ATOM      1  C   UNL     1      36.102  56.382  58.046  0.00  0.00    +0.000 C 
ATOM      2  C   UNL     1      36.630  55.191  57.817  0.00  0.00    +0.000 C 
ENDROOT
BRANCH   1   6
ATOM      3  C   UNL     1      35.219  58.858  54.670  0.00  0.00    +0.000 A 
ATOM      4  C   UNL     1      34.594  59.059  55.881  0.00  0.00    +0.000 A 
ATOM      5  C   UNL     1      34.888  58.252  56.959  0.00  0.00    +0.000 A 
ATOM      6  C   UNL     1      35.810  57.223  56.880  0.00  0.00    +0.000 A 
ATOM      7  C   UNL     1      36.429  57.032  55.662  0.00  0.00    +0.000 A 
ATOM      8  C   UNL     1      36.138  57.836  54.574  0.00  0.00    +0.000 A 
BRANCH   3   9
ATOM      9  O   UNL     1      34.938  59.665  53.551  0.00  0.00    +0.000 OA
BRANCH   9  10
ATOM     10  C   UNL     1      35.310  61.029  53.553  0.00  0.00    +0.000 C 
BRANCH  10  12
ATOM     11  C   UNL     1      36.810  62.299  54.662  0.00  0.00    +0.000 C 
ATOM     12  O   UNL     1      36.679  61.175  53.845  0.00  0.00    +0.000 OA
ENDBRANCH  10  12
ENDBRANCH   9  10
ENDBRANCH   3   9
ENDBRANCH   1   6
BRANCH   2  13
ATOM     13  C   UNL     1      36.974  54.248  58.845  0.00  0.00    +0.000 A 
ATOM     14  C   UNL     1      38.247  54.140  59.354  0.00  0.00    +0.000 A 
ATOM     15  C   UNL     1      38.554  53.226  60.341  0.00  0.00    +0.000 A 
ATOM     16  C   UNL     1      37.594  52.377  60.861  0.00  0.00    +0.000 A 
ATOM     17  C   UNL     1      36.321  52.507  60.331  0.00  0.00    +0.000 A 
ATOM     18  C   UNL     1      36.004  53.416  59.347  0.00  0.00    +0.000 A 
BRANCH  15  19
ATOM     19  O   UNL     1      39.849  53.114  60.860  0.00  0.00    +0.000 OA
ATOM     20  C   UNL     1      40.946  53.226  59.947  0.00  0.00    +0.000 C 
ENDBRANCH  15  19
BRANCH  16  21
ATOM     21  O   UNL     1      37.904  51.459  61.853  0.00  0.00    +0.000 OA
ATOM     22  C   UNL     1      38.402  50.166  61.575  0.00  0.00    +0.000 C 
ENDBRANCH  16  21
BRANCH  17  23
ATOM     23  O   UNL     1      35.332  51.650  60.852  0.00  0.00    +0.000 OA
ATOM     24  C   UNL     1      34.824  50.611  60.028  0.00  0.00    +0.000 C 
ENDBRANCH  17  23
ENDBRANCH   2  13
TORSDOF 8
ENDMDL
MODEL 5
REMARK VINA RESULT:      -5.5      1.859      9.190
REMARK  Name = 
REMARK  8 active torsions:
REMARK  status: ('A' for Active; 'I' for Inactive)
REMARK    1  A    between atoms: O_2  and  C_3
REMARK    2  A    between atoms: C_3  and  O_4
REMARK    3  A    between atoms: O_4  and  C_5
REMARK    4  A    between atoms: C_8  and  C_9
REMARK    5  A    between atoms: C_10  and  C_11
REMARK    6  A    between atoms: C_13  and  O_14
REMARK    7  A    between atoms: C_16  and  O_17
REMARK    8  A    between atoms: C_19  and  O_20
REMARK                            x       y       z     vdW  Elec       q    Type
REMARK                         _______ _______ _______ _____ _____    ______ ____
ROOT
ATOM      1  C   UNL     1      36.342  56.653  58.950  0.00  0.00    +0.000 C 
ATOM      2  C   UNL     1      36.034  56.737  57.666  0.00  0.00    +0.000 C 
ENDROOT
BRANCH   1   6
ATOM      3  C   UNL     1      38.956  53.495  60.178  0.00  0.00    +0.000 A 
ATOM      4  C   UNL     1      38.653  54.538  61.027  0.00  0.00    +0.000 A 
ATOM      5  C   UNL     1      37.809  55.548  60.617  0.00  0.00    +0.000 A 
ATOM      6  C   UNL     1      37.236  55.564  59.357  0.00  0.00    +0.000 A 
ATOM      7  C   UNL     1      37.547  54.515  58.516  0.00  0.00    +0.000 A 
ATOM      8  C   UNL     1      38.395  53.497  58.920  0.00  0.00    +0.000 A 
BRANCH   3   9
ATOM      9  O   UNL     1      39.815  52.451  60.568  0.00  0.00    +0.000 OA
BRANCH   9  10
ATOM     10  C   UNL     1      40.512  51.707  59.589  0.00  0.00    +0.000 C 
BRANCH  10  12
ATOM     11  C   UNL     1      41.890  52.488  57.983  0.00  0.00    +0.000 C 
ATOM     12  O   UNL     1      41.786  52.258  59.354  0.00  0.00    +0.000 OA
ENDBRANCH  10  12
ENDBRANCH   9  10
ENDBRANCH   3   9
ENDBRANCH   1   6
BRANCH   2  13
ATOM     13  C   UNL     1      35.175  57.741  57.105  0.00  0.00    +0.000 A 
ATOM     14  C   UNL     1      34.201  58.377  57.840  0.00  0.00    +0.000 A 
ATOM     15  C   UNL     1      33.386  59.339  57.278  0.00  0.00    +0.000 A 
ATOM     16  C   UNL     1      33.513  59.706  55.951  0.00  0.00    +0.000 A 
ATOM     17  C   UNL     1      34.501  59.050  55.234  0.00  0.00    +0.000 A 
ATOM     18  C   UNL     1      35.320  58.089  55.784  0.00  0.00    +0.000 A 
BRANCH  15  19
ATOM     19  O   UNL     1      32.395  59.987  58.024  0.00  0.00    +0.000 OA
ATOM     20  C   UNL     1      32.744  60.457  59.330  0.00  0.00    +0.000 C 
ENDBRANCH  15  19
BRANCH  16  21
ATOM     21  O   UNL     1      32.695  60.672  55.388  0.00  0.00    +0.000 OA
ATOM     22  C   UNL     1      31.423  60.381  54.842  0.00  0.00    +0.000 C 
ENDBRANCH  16  21
BRANCH  17  23
ATOM     23  O   UNL     1      34.643  59.414  53.881  0.00  0.00    +0.000 OA
ATOM     24  C   UNL     1      35.668  58.802  53.111  0.00  0.00    +0.000 C 
ENDBRANCH  17  23
ENDBRANCH   2  13
TORSDOF 8
ENDMDL
MODEL 6
REMARK VINA RESULT:      -5.5      3.117      8.956
REMARK  Name = 
REMARK  8 active torsions:
REMARK  status: ('A' for Active; 'I' for Inactive)
REMARK    1  A    between atoms: O_2  and  C_3
REMARK    2  A    between atoms: C_3  and  O_4
REMARK    3  A    between atoms: O_4  and  C_5
REMARK    4  A    between atoms: C_8  and  C_9
REMARK    5  A    between atoms: C_10  and  C_11
REMARK    6  A    between atoms: C_13  and  O_14
REMARK    7  A    between atoms: C_16  and  O_17
REMARK    8  A    between atoms: C_19  and  O_20
REMARK                            x       y       z     vdW  Elec       q    Type
REMARK                         _______ _______ _______ _____ _____    ______ ____
ROOT
ATOM      1  C   UNL     1      36.631  54.889  58.417  0.00  0.00    +0.000 C 
ATOM      2  C   UNL     1      35.798  55.786  57.916  0.00  0.00    +0.000 C 
ENDROOT
BRANCH   1   6
ATOM      3  C   UNL     1      34.930  51.304  60.021  0.00  0.00    +0.000 A 
ATOM      4  C   UNL     1      35.529  51.314  58.780  0.00  0.00    +0.000 A 
ATOM      5  C   UNL     1      36.071  52.476  58.276  0.00  0.00    +0.000 A 
ATOM      6  C   UNL     1      36.044  53.668  58.980  0.00  0.00    +0.000 A 
ATOM      7  C   UNL     1      35.442  53.646  60.221  0.00  0.00    +0.000 A 
ATOM      8  C   UNL     1      34.893  52.483  60.733  0.00  0.00    +0.000 A 
BRANCH   3   9
ATOM      9  O   UNL     1      34.367  50.133  60.560  0.00  0.00    +0.000 OA
BRANCH   9  10
ATOM     10  C   UNL     1      34.912  49.563  61.734  0.00  0.00    +0.000 C 
BRANCH  10  12
ATOM     11  C   UNL     1      36.953  49.557  62.697  0.00  0.00    +0.000 C 
ATOM     12  O   UNL     1      36.259  49.206  61.539  0.00  0.00    +0.000 OA
ENDBRANCH  10  12
ENDBRANCH   9  10
ENDBRANCH   3   9
ENDBRANCH   1   6
BRANCH   2  13
ATOM     13  C   UNL     1      36.208  57.031  57.329  0.00  0.00    +0.000 A 
ATOM     14  C   UNL     1      36.459  58.156  58.079  0.00  0.00    +0.000 A 
ATOM     15  C   UNL     1      36.852  59.342  57.493  0.00  0.00    +0.000 A 
ATOM     16  C   UNL     1      37.010  59.451  56.123  0.00  0.00    +0.000 A 
ATOM     17  C   UNL     1      36.751  58.303  55.391  0.00  0.00    +0.000 A 
ATOM     18  C   UNL     1      36.359  57.115  55.966  0.00  0.00    +0.000 A 
BRANCH  15  19
ATOM     19  O   UNL     1      37.108  60.488  58.254  0.00  0.00    +0.000 OA
ATOM     20  C   UNL     1      38.351  60.554  58.961  0.00  0.00    +0.000 C 
ENDBRANCH  15  19
BRANCH  16  21
ATOM     21  O   UNL     1      37.405  60.642  55.535  0.00  0.00    +0.000 OA
ATOM     22  C   UNL     1      36.494  61.663  55.180  0.00  0.00    +0.000 C 
ENDBRANCH  16  21
BRANCH  17  23
ATOM     23  O   UNL     1      36.909  58.399  53.995  0.00  0.00    +0.000 OA
ATOM     24  C   UNL     1      35.764  58.651  53.193  0.00  0.00    +0.000 C 
ENDBRANCH  17  23
ENDBRANCH   2  13
TORSDOF 8
ENDMDL
MODEL 7
REMARK VINA RESULT:      -5.5      1.615      9.330
REMARK  Name = 
REMARK  8 active torsions:
REMARK  status: ('A' for Active; 'I' for Inactive)
REMARK    1  A    between atoms: O_2  and  C_3
REMARK    2  A    between atoms: C_3  and  O_4
REMARK    3  A    between atoms: O_4  and  C_5
REMARK    4  A    between atoms: C_8  and  C_9
REMARK    5  A    between atoms: C_10  and  C_11
REMARK    6  A    between atoms: C_13  and  O_14
REMARK    7  A    between atoms: C_16  and  O_17
REMARK    8  A    between atoms: C_19  and  O_20
REMARK                            x       y       z     vdW  Elec       q    Type
REMARK                         _______ _______ _______ _____ _____    ______ ____
ROOT
ATOM      1  C   UNL     1      35.841  55.680  58.535  0.00  0.00    +0.000 C 
ATOM      2  C   UNL     1      36.325  56.334  57.492  0.00  0.00    +0.000 C 
ENDROOT
BRANCH   1   6
ATOM      3  C   UNL     1      38.317  52.698  60.349  0.00  0.00    +0.000 A 
ATOM      4  C   UNL     1      37.077  53.004  60.867  0.00  0.00    +0.000 A 
ATOM      5  C   UNL     1      36.291  53.967  60.272  0.00  0.00    +0.000 A 
ATOM      6  C   UNL     1      36.700  54.660  59.146  0.00  0.00    +0.000 A 
ATOM      7  C   UNL     1      37.943  54.345  58.637  0.00  0.00    +0.000 A 
ATOM      8  C   UNL     1      38.739  53.380  59.229  0.00  0.00    +0.000 A 
BRANCH   3   9
ATOM      9  O   UNL     1      39.141  51.720  60.936  0.00  0.00    +0.000 OA
BRANCH   9  10
ATOM     10  C   UNL     1      39.819  50.785  60.119  0.00  0.00    +0.000 C 
BRANCH  10  12
ATOM     11  C   UNL     1      38.980  48.693  60.208  0.00  0.00    +0.000 C 
ATOM     12  O   UNL     1      38.910  49.899  59.511  0.00  0.00    +0.000 OA
ENDBRANCH  10  12
ENDBRANCH   9  10
ENDBRANCH   3   9
ENDBRANCH   1   6
BRANCH   2  13
ATOM     13  C   UNL     1      35.614  57.360  56.781  0.00  0.00    +0.000 A 
ATOM     14  C   UNL     1      35.906  57.697  55.480  0.00  0.00    +0.000 A 
ATOM     15  C   UNL     1      35.210  58.687  54.817  0.00  0.00    +0.000 A 
ATOM     16  C   UNL     1      34.187  59.385  55.434  0.00  0.00    +0.000 A 
ATOM     17  C   UNL     1      33.914  59.026  56.743  0.00  0.00    +0.000 A 
ATOM     18  C   UNL     1      34.602  58.040  57.414  0.00  0.00    +0.000 A 
BRANCH  15  19
ATOM     19  O   UNL     1      35.505  59.031  53.493  0.00  0.00    +0.000 OA
ATOM     20  C   UNL     1      36.884  59.151  53.127  0.00  0.00    +0.000 C 
ENDBRANCH  15  19
BRANCH  16  21
ATOM     21  O   UNL     1      33.488  60.379  54.767  0.00  0.00    +0.000 OA
ATOM     22  C   UNL     1      33.833  61.748  54.848  0.00  0.00    +0.000 C 
ENDBRANCH  16  21
BRANCH  17  23
ATOM     23  O   UNL     1      32.874  59.728  57.384  0.00  0.00    +0.000 OA
ATOM     24  C   UNL     1      33.115  60.288  58.667  0.00  0.00    +0.000 C 
ENDBRANCH  17  23
ENDBRANCH   2  13
TORSDOF 8
ENDMDL
MODEL 8
REMARK VINA RESULT:      -5.5      1.859      9.325
REMARK  Name = 
REMARK  8 active torsions:
REMARK  status: ('A' for Active; 'I' for Inactive)
REMARK    1  A    between atoms: O_2  and  C_3
REMARK    2  A    between atoms: C_3  and  O_4
REMARK    3  A    between atoms: O_4  and  C_5
REMARK    4  A    between atoms: C_8  and  C_9
REMARK    5  A    between atoms: C_10  and  C_11
REMARK    6  A    between atoms: C_13  and  O_14
REMARK    7  A    between atoms: C_16  and  O_17
REMARK    8  A    between atoms: C_19  and  O_20
REMARK                            x       y       z     vdW  Elec       q    Type
REMARK                         _______ _______ _______ _____ _____    ______ ____
ROOT
ATOM      1  C   UNL     1      35.937  56.456  58.821  0.00  0.00    +0.000 C 
ATOM      2  C   UNL     1      35.987  56.913  57.581  0.00  0.00    +0.000 C 
ENDROOT
BRANCH   1   6
ATOM      3  C   UNL     1      38.817  53.506  59.969  0.00  0.00    +0.000 A 
ATOM      4  C   UNL     1      38.522  54.570  60.794  0.00  0.00    +0.000 A 
ATOM      5  C   UNL     1      37.592  55.512  60.410  0.00  0.00    +0.000 A 
ATOM      6  C   UNL     1      36.921  55.436  59.201  0.00  0.00    +0.000 A 
ATOM      7  C   UNL     1      37.225  54.367  58.385  0.00  0.00    +0.000 A 
ATOM      8  C   UNL     1      38.159  53.417  58.762  0.00  0.00    +0.000 A 
BRANCH   3   9
ATOM      9  O   UNL     1      39.761  52.529  60.334  0.00  0.00    +0.000 OA
BRANCH   9  10
ATOM     10  C   UNL     1      41.134  52.862  60.398  0.00  0.00    +0.000 C 
BRANCH  10  12
ATOM     11  C   UNL     1      41.993  52.435  58.356  0.00  0.00    +0.000 C 
ATOM     12  O   UNL     1      41.560  53.460  59.197  0.00  0.00    +0.000 OA
ENDBRANCH  10  12
ENDBRANCH   9  10
ENDBRANCH   3   9
ENDBRANCH   1   6
BRANCH   2  13
ATOM     13  C   UNL     1      35.098  57.909  57.050  0.00  0.00    +0.000 A 
ATOM     14  C   UNL     1      35.159  58.334  55.743  0.00  0.00    +0.000 A 
ATOM     15  C   UNL     1      34.295  59.293  55.256  0.00  0.00    +0.000 A 
ATOM     16  C   UNL     1      33.329  59.869  56.061  0.00  0.00    +0.000 A 
ATOM     17  C   UNL     1      33.290  59.423  57.372  0.00  0.00    +0.000 A 
ATOM     18  C   UNL     1      34.147  58.467  57.868  0.00  0.00    +0.000 A 
BRANCH  15  19
ATOM     19  O   UNL     1      34.354  59.727  53.926  0.00  0.00    +0.000 OA
ATOM     20  C   UNL     1      35.527  60.433  53.508  0.00  0.00    +0.000 C 
ENDBRANCH  15  19
BRANCH  16  21
ATOM     21  O   UNL     1      32.461  60.832  55.570  0.00  0.00    +0.000 OA
ATOM     22  C   UNL     1      31.204  60.517  55.005  0.00  0.00    +0.000 C 
ENDBRANCH  16  21
BRANCH  17  23
ATOM     23  O   UNL     1      32.311  60.001  58.204  0.00  0.00    +0.000 OA
ATOM     24  C   UNL     1      32.622  60.228  59.571  0.00  0.00    +0.000 C 
ENDBRANCH  17  23
ENDBRANCH   2  13
TORSDOF 8
ENDMDL
MODEL 9
REMARK VINA RESULT:      -5.4      1.883      3.483
REMARK  Name = 
REMARK  8 active torsions:
REMARK  status: ('A' for Active; 'I' for Inactive)
REMARK    1  A    between atoms: O_2  and  C_3
REMARK    2  A    between atoms: C_3  and  O_4
REMARK    3  A    between atoms: O_4  and  C_5
REMARK    4  A    between atoms: C_8  and  C_9
REMARK    5  A    between atoms: C_10  and  C_11
REMARK    6  A    between atoms: C_13  and  O_14
REMARK    7  A    between atoms: C_16  and  O_17
REMARK    8  A    between atoms: C_19  and  O_20
REMARK                            x       y       z     vdW  Elec       q    Type
REMARK                         _______ _______ _______ _____ _____    ______ ____
ROOT
ATOM      1  C   UNL     1      36.173  54.627  59.065  0.00  0.00    +0.000 C 
ATOM      2  C   UNL     1      37.091  53.866  58.494  0.00  0.00    +0.000 C 
ENDROOT
BRANCH   1   6
ATOM      3  C   UNL     1      34.985  58.198  57.027  0.00  0.00    +0.000 A 
ATOM      4  C   UNL     1      34.372  57.811  58.199  0.00  0.00    +0.000 A 
ATOM      5  C   UNL     1      34.765  56.658  58.843  0.00  0.00    +0.000 A 
ATOM      6  C   UNL     1      35.777  55.849  58.355  0.00  0.00    +0.000 A 
ATOM      7  C   UNL     1      36.383  56.247  57.181  0.00  0.00    +0.000 A 
ATOM      8  C   UNL     1      35.993  57.403  56.527  0.00  0.00    +0.000 A 
BRANCH   3   9
ATOM      9  O   UNL     1      34.605  59.369  56.347  0.00  0.00    +0.000 OA
BRANCH   9  10
ATOM     10  C   UNL     1      35.252  59.729  55.142  0.00  0.00    +0.000 C 
BRANCH  10  12
ATOM     11  C   UNL     1      35.354  58.918  53.039  0.00  0.00    +0.000 C 
ATOM     12  O   UNL     1      34.476  59.361  54.027  0.00  0.00    +0.000 OA
ENDBRANCH  10  12
ENDBRANCH   9  10
ENDBRANCH   3   9
ENDBRANCH   1   6
BRANCH   2  13
ATOM     13  C   UNL     1      37.588  52.640  59.054  0.00  0.00    +0.000 A 
ATOM     14  C   UNL     1      38.924  52.312  59.050  0.00  0.00    +0.000 A 
ATOM     15  C   UNL     1      39.378  51.129  59.594  0.00  0.00    +0.000 A 
ATOM     16  C   UNL     1      38.509  50.219  60.168  0.00  0.00    +0.000 A 
ATOM     17  C   UNL     1      37.170  50.574  60.160  0.00  0.00    +0.000 A 
ATOM     18  C   UNL     1      36.706  51.752  59.619  0.00  0.00    +0.000 A 
BRANCH  15  19
ATOM     19  O   UNL     1      40.737  50.793  59.590  0.00  0.00    +0.000 OA
ATOM     20  C   UNL     1      41.611  51.545  60.439  0.00  0.00    +0.000 C 
ENDBRANCH  15  19
BRANCH  16  21
ATOM     21  O   UNL     1      38.966  49.030  60.715  0.00  0.00    +0.000 OA
ATOM     22  C   UNL     1      39.047  47.826  59.978  0.00  0.00    +0.000 C 
ENDBRANCH  16  21
BRANCH  17  23
ATOM     23  O   UNL     1      36.273  49.657  60.742  0.00  0.00    +0.000 OA
ATOM     24  C   UNL     1      34.916  50.042  60.912  0.00  0.00    +0.000 C 
ENDBRANCH  17  23
ENDBRANCH   2  13
TORSDOF 8
ENDMDL
MODEL 10
REMARK VINA RESULT:      -5.4      3.941     10.210
REMARK  Name = 
REMARK  8 active torsions:
REMARK  status: ('A' for Active; 'I' for Inactive)
REMARK    1  A    between atoms: O_2  and  C_3
REMARK    2  A    between atoms: C_3  and  O_4
REMARK    3  A    between atoms: O_4  and  C_5
REMARK    4  A    between atoms: C_8  and  C_9
REMARK    5  A    between atoms: C_10  and  C_11
REMARK    6  A    between atoms: C_13  and  O_14
REMARK    7  A    between atoms: C_16  and  O_17
REMARK    8  A    between atoms: C_19  and  O_20
REMARK                            x       y       z     vdW  Elec       q    Type
REMARK                         _______ _______ _______ _____ _____    ______ ____
ROOT
ATOM      1  C   UNL     1      40.225  51.613  59.981  0.00  0.00    +0.000 C 
ATOM      2  C   UNL     1      39.627  52.084  58.899  0.00  0.00    +0.000 C 
ENDROOT
BRANCH   1   6
ATOM      3  C   UNL     1      44.347  50.504  59.664  0.00  0.00    +0.000 A 
ATOM      4  C   UNL     1      43.598  50.153  60.767  0.00  0.00    +0.000 A 
ATOM      5  C   UNL     1      42.272  50.518  60.855  0.00  0.00    +0.000 A 
ATOM      6  C   UNL     1      41.639  51.240  59.858  0.00  0.00    +0.000 A 
ATOM      7  C   UNL     1      42.398  51.586  58.759  0.00  0.00    +0.000 A 
ATOM      8  C   UNL     1      43.731  51.225  58.664  0.00  0.00    +0.000 A 
BRANCH   3   9
ATOM      9  O   UNL     1      45.702  50.147  59.547  0.00  0.00    +0.000 OA
BRANCH   9  10
ATOM     10  C   UNL     1      46.576  50.321  60.645  0.00  0.00    +0.000 C 
BRANCH  10  12
ATOM     11  C   UNL     1      46.846  51.836  62.296  0.00  0.00    +0.000 C 
ATOM     12  O   UNL     1      46.782  51.688  60.910  0.00  0.00    +0.000 OA
ENDBRANCH  10  12
ENDBRANCH   9  10
ENDBRANCH   3   9
ENDBRANCH   1   6
BRANCH   2  13
ATOM     13  C   UNL     1      38.251  52.494  58.850  0.00  0.00    +0.000 A 
ATOM     14  C   UNL     1      37.874  53.791  58.590  0.00  0.00    +0.000 A 
ATOM     15  C   UNL     1      36.546  54.162  58.549  0.00  0.00    +0.000 A 
ATOM     16  C   UNL     1      35.535  53.244  58.767  0.00  0.00    +0.000 A 
ATOM     17  C   UNL     1      35.942  51.946  59.026  0.00  0.00    +0.000 A 
ATOM     18  C   UNL     1      37.264  51.565  59.069  0.00  0.00    +0.000 A 
BRANCH  15  19
ATOM     19  O   UNL     1      36.161  55.481  58.285  0.00  0.00    +0.000 OA
ATOM     20  C   UNL     1      36.430  56.467  59.287  0.00  0.00    +0.000 C 
ENDBRANCH  15  19
BRANCH  16  21
ATOM     21  O   UNL     1      34.200  53.618  58.724  0.00  0.00    +0.000 OA
ATOM     22  C   UNL     1      33.494  54.077  59.860  0.00  0.00    +0.000 C 
ENDBRANCH  16  21
BRANCH  17  23
ATOM     23  O   UNL     1      34.922  51.000  59.249  0.00  0.00    +0.000 OA
ATOM     24  C   UNL     1      34.895  50.302  60.486  0.00  0.00    +0.000 C 
ENDBRANCH  17  23
ENDBRANCH   2  13
TORSDOF 8
ENDMDL
