REMARK  Name = 
REMARK  8 active torsions:
REMARK  status: ('A' for Active; 'I' for Inactive)
REMARK    1  A    between atoms: C_2  and  C_3
REMARK    2  A    between atoms: C_3  and  O_4
REMARK    3  A    between atoms: O_4  and  C_5
REMARK    4  A    between atoms: C_8  and  C_9
REMARK    5  A    between atoms: C_10  and  C_11
REMARK    6  A    between atoms: C_13  and  O_14
REMARK    7  A    between atoms: C_16  and  O_17
REMARK    8  A    between atoms: C_19  and  O_20
REMARK                            x       y       z     vdW  Elec       q    Type
REMARK                         _______ _______ _______ _____ _____    ______ ____
ROOT
ATOM      1  C   UNL     1       1.598  -1.605  -1.148  0.00  0.00    +0.000 C 
ATOM      2  C   UNL     1       0.500  -2.145  -1.243  0.00  0.00    +0.000 C 
ENDROOT
BRANCH   1   6
ATOM      3  C   UNL     1       2.956   2.033   0.675  0.00  0.00    +0.000 A 
ATOM      4  C   UNL     1       3.753   1.134   0.004  0.00  0.00    +0.000 A 
ATOM      5  C   UNL     1       3.279  -0.013  -0.562  0.00  0.00    +0.000 A 
ATOM      6  C   UNL     1       1.906  -0.372  -0.501  0.00  0.00    +0.000 A 
ATOM      7  C   UNL     1       1.149   0.530   0.164  0.00  0.00    +0.000 A 
ATOM      8  C   UNL     1       1.616   1.690   0.739  0.00  0.00    +0.000 A 
BRANCH   3   9
ATOM      9  O   UNL     1       3.434   3.200   1.252  0.00  0.00    +0.000 OA
BRANCH   9  10
ATOM     10  C   UNL     1       4.766   3.605   1.226  0.00  0.00    +0.000 C 
BRANCH  10  12
ATOM     11  C   UNL     1       5.430   2.368   3.323  0.00  0.00    +0.000 C 
ATOM     12  C   UNL     1       5.707   2.632   1.878  0.00  0.00    +0.000 C 
ENDBRANCH  10  12
ENDBRANCH   9  10
ENDBRANCH   3   9
ENDBRANCH   1   6
BRANCH   2  13
ATOM     13  C   UNL     1      -0.744  -1.673  -0.729  0.00  0.00    +0.000 A 
ATOM     14  C   UNL     1      -1.049  -0.552  -0.031  0.00  0.00    +0.000 A 
ATOM     15  C   UNL     1      -2.315  -0.212   0.414  0.00  0.00    +0.000 A 
ATOM     16  C   UNL     1      -3.374  -1.054   0.145  0.00  0.00    +0.000 A 
ATOM     17  C   UNL     1      -3.129  -2.226  -0.571  0.00  0.00    +0.000 A 
ATOM     18  C   UNL     1      -1.832  -2.520  -0.995  0.00  0.00    +0.000 A 
BRANCH  15  19
ATOM     19  O   UNL     1      -2.601   0.932   1.121  0.00  0.00    +0.000 OA
ATOM     20  C   UNL     1      -1.657   1.896   1.480  0.00  0.00    +0.000 C 
ENDBRANCH  15  19
BRANCH  16  21
ATOM     21  O   UNL     1      -4.652  -0.748   0.572  0.00  0.00    +0.000 OA
ATOM     22  C   UNL     1      -5.555   0.002  -0.212  0.00  0.00    +0.000 C 
ENDBRANCH  16  21
BRANCH  17  23
ATOM     23  O   UNL     1      -4.148  -3.032  -0.828  0.00  0.00    +0.000 OA
ATOM     24  C   UNL     1      -5.037  -3.869  -1.127  0.00  0.00    +0.000 C 
ENDBRANCH  17  23
ENDBRANCH   2  13
TORSDOF 8
