MODEL 1
REMARK VINA RESULT:      -6.7      0.000      0.000
REMARK  Name = 
REMARK  3 active torsions:
REMARK  status: ('A' for Active; 'I' for Inactive)
REMARK    1  A    between atoms: O_2  and  C_3
REMARK    2  A    between atoms: C_6  and  C_7
REMARK    3  A    between atoms: C_8  and  C_9
REMARK                            x       y       z     vdW  Elec       q    Type
REMARK                         _______ _______ _______ _____ _____    ______ ____
ROOT
ATOM      1  C   UNL     1      34.879  56.932  59.500  0.00  0.00    +0.000 C 
ATOM      2  C   UNL     1      34.603  57.863  58.720  0.00  0.00    +0.000 C 
ENDROOT
BRANCH   2   3
ATOM      3  C   UNL     1      34.996  57.972  57.350  0.00  0.00    +0.000 A 
ATOM      4  C   UNL     1      36.038  57.451  56.669  0.00  0.00    +0.000 A 
ATOM      5  C   UNL     1      36.309  57.631  55.348  0.00  0.00    +0.000 A 
ATOM      6  O   UNL     1      37.417  57.027  54.804  0.00  0.00    +0.000 OA
ATOM      7  C   UNL     1      35.442  58.417  54.627  0.00  0.00    +0.000 A 
ATOM      8  C   UNL     1      34.351  58.989  55.240  0.00  0.00    +0.000 A 
ATOM      9  O   UNL     1      33.465  59.796  54.497  0.00  0.00    +0.000 OA
ATOM     10  C   UNL     1      34.127  58.776  56.571  0.00  0.00    +0.000 A 
ENDBRANCH   2   3
BRANCH   1  14
ATOM     11  C   UNL     1      37.402  53.573  58.805  0.00  0.00    +0.000 A 
ATOM     12  C   UNL     1      37.818  54.752  59.372  0.00  0.00    +0.000 A 
ATOM     13  C   UNL     1      37.000  55.825  59.591  0.00  0.00    +0.000 A 
ATOM     14  C   UNL     1      35.635  55.773  59.232  0.00  0.00    +0.000 A 
ATOM     15  C   UNL     1      35.248  54.611  58.677  0.00  0.00    +0.000 A 
ATOM     16  C   UNL     1      36.065  53.511  58.448  0.00  0.00    +0.000 A 
ATOM     17  O   UNL     1      35.590  52.348  57.873  0.00  0.00    +0.000 OA
BRANCH  11  19
ATOM     18  C   UNL     1      39.584  52.687  58.151  0.00  0.00    +0.000 C 
ATOM     19  O   UNL     1      38.254  52.500  58.595  0.00  0.00    +0.000 OA
ENDBRANCH  11  19
ENDBRANCH   1  14
TORSDOF 3
ENDMDL
MODEL 2
REMARK VINA RESULT:      -6.7      1.341      5.951
REMARK  Name = 
REMARK  3 active torsions:
REMARK  status: ('A' for Active; 'I' for Inactive)
REMARK    1  A    between atoms: O_2  and  C_3
REMARK    2  A    between atoms: C_6  and  C_7
REMARK    3  A    between atoms: C_8  and  C_9
REMARK                            x       y       z     vdW  Elec       q    Type
REMARK                         _______ _______ _______ _____ _____    ______ ____
ROOT
ATOM      1  C   UNL     1      35.601  57.449  59.579  0.00  0.00    +0.000 C 
ATOM      2  C   UNL     1      35.474  56.379  60.203  0.00  0.00    +0.000 C 
ENDROOT
BRANCH   2   3
ATOM      3  C   UNL     1      35.252  55.084  59.639  0.00  0.00    +0.000 A 
ATOM      4  C   UNL     1      34.121  54.434  59.297  0.00  0.00    +0.000 A 
ATOM      5  C   UNL     1      34.039  53.186  58.761  0.00  0.00    +0.000 A 
ATOM      6  O   UNL     1      32.803  52.664  58.467  0.00  0.00    +0.000 OA
ATOM      7  C   UNL     1      35.218  52.513  58.545  0.00  0.00    +0.000 A 
ATOM      8  C   UNL     1      36.421  53.099  58.865  0.00  0.00    +0.000 A 
ATOM      9  O   UNL     1      37.628  52.406  58.641  0.00  0.00    +0.000 OA
ATOM     10  C   UNL     1      36.445  54.356  59.401  0.00  0.00    +0.000 A 
ENDBRANCH   2   3
BRANCH   1  14
ATOM     11  C   UNL     1      35.224  58.207  55.406  0.00  0.00    +0.000 A 
ATOM     12  C   UNL     1      34.346  58.660  56.359  0.00  0.00    +0.000 A 
ATOM     13  C   UNL     1      34.476  58.411  57.697  0.00  0.00    +0.000 A 
ATOM     14  C   UNL     1      35.559  57.647  58.184  0.00  0.00    +0.000 A 
ATOM     15  C   UNL     1      36.407  57.212  57.234  0.00  0.00    +0.000 A 
ATOM     16  C   UNL     1      36.290  57.456  55.871  0.00  0.00    +0.000 A 
ATOM     17  O   UNL     1      37.206  56.973  54.956  0.00  0.00    +0.000 OA
BRANCH  11  19
ATOM     18  C   UNL     1      35.086  59.798  53.555  0.00  0.00    +0.000 C 
ATOM     19  O   UNL     1      35.067  58.475  54.054  0.00  0.00    +0.000 OA
ENDBRANCH  11  19
ENDBRANCH   1  14
TORSDOF 3
ENDMDL
MODEL 3
REMARK VINA RESULT:      -6.7      1.309      5.661
REMARK  Name = 
REMARK  3 active torsions:
REMARK  status: ('A' for Active; 'I' for Inactive)
REMARK    1  A    between atoms: O_2  and  C_3
REMARK    2  A    between atoms: C_6  and  C_7
REMARK    3  A    between atoms: C_8  and  C_9
REMARK                            x       y       z     vdW  Elec       q    Type
REMARK                         _______ _______ _______ _____ _____    ______ ____
ROOT
ATOM      1  C   UNL     1      35.183  57.520  59.442  0.00  0.00    +0.000 C 
ATOM      2  C   UNL     1      35.207  56.453  60.083  0.00  0.00    +0.000 C 
ENDROOT
BRANCH   2   3
ATOM      3  C   UNL     1      35.361  55.138  59.545  0.00  0.00    +0.000 A 
ATOM      4  C   UNL     1      36.457  54.413  59.242  0.00  0.00    +0.000 A 
ATOM      5  C   UNL     1      36.474  53.154  58.727  0.00  0.00    +0.000 A 
ATOM      6  O   UNL     1      37.683  52.552  58.473  0.00  0.00    +0.000 OA
ATOM      7  C   UNL     1      35.262  52.552  58.490  0.00  0.00    +0.000 A 
ATOM      8  C   UNL     1      34.090  53.217  58.770  0.00  0.00    +0.000 A 
ATOM      9  O   UNL     1      32.848  52.597  58.525  0.00  0.00    +0.000 OA
ATOM     10  C   UNL     1      34.131  54.482  59.286  0.00  0.00    +0.000 A 
ENDBRANCH   2   3
BRANCH   1  14
ATOM     11  C   UNL     1      35.278  58.206  55.240  0.00  0.00    +0.000 A 
ATOM     12  C   UNL     1      34.300  58.676  56.081  0.00  0.00    +0.000 A 
ATOM     13  C   UNL     1      34.279  58.450  57.429  0.00  0.00    +0.000 A 
ATOM     14  C   UNL     1      35.298  57.694  58.048  0.00  0.00    +0.000 A 
ATOM     15  C   UNL     1      36.246  57.242  57.206  0.00  0.00    +0.000 A 
ATOM     16  C   UNL     1      36.284  57.462  55.836  0.00  0.00    +0.000 A 
ATOM     17  O   UNL     1      37.295  56.963  55.037  0.00  0.00    +0.000 OA
BRANCH  11  19
ATOM     18  C   UNL     1      35.644  59.710  53.349  0.00  0.00    +0.000 C 
ATOM     19  O   UNL     1      35.275  58.450  53.875  0.00  0.00    +0.000 OA
ENDBRANCH  11  19
ENDBRANCH   1  14
TORSDOF 3
ENDMDL
MODEL 4
REMARK VINA RESULT:      -6.6      1.691      2.368
REMARK  Name = 
REMARK  3 active torsions:
REMARK  status: ('A' for Active; 'I' for Inactive)
REMARK    1  A    between atoms: O_2  and  C_3
REMARK    2  A    between atoms: C_6  and  C_7
REMARK    3  A    between atoms: C_8  and  C_9
REMARK                            x       y       z     vdW  Elec       q    Type
REMARK                         _______ _______ _______ _____ _____    ______ ____
ROOT
ATOM      1  C   UNL     1      36.675  57.162  59.789  0.00  0.00    +0.000 C 
ATOM      2  C   UNL     1      36.641  58.178  59.070  0.00  0.00    +0.000 C 
ENDROOT
BRANCH   2   3
ATOM      3  C   UNL     1      35.930  58.328  57.839  0.00  0.00    +0.000 A 
ATOM      4  C   UNL     1      36.274  58.061  56.563  0.00  0.00    +0.000 A 
ATOM      5  C   UNL     1      35.498  58.251  55.461  0.00  0.00    +0.000 A 
ATOM      6  O   UNL     1      36.001  57.926  54.225  0.00  0.00    +0.000 OA
ATOM      7  C   UNL     1      34.238  58.764  55.658  0.00  0.00    +0.000 A 
ATOM      8  C   UNL     1      33.802  59.066  56.927  0.00  0.00    +0.000 A 
ATOM      9  O   UNL     1      32.509  59.593  57.124  0.00  0.00    +0.000 OA
ATOM     10  C   UNL     1      34.624  58.856  57.999  0.00  0.00    +0.000 A 
ENDBRANCH   2   3
BRANCH   1  14
ATOM     11  C   UNL     1      34.969  53.346  58.978  0.00  0.00    +0.000 A 
ATOM     12  C   UNL     1      36.202  53.755  58.534  0.00  0.00    +0.000 A 
ATOM     13  C   UNL     1      36.741  54.983  58.800  0.00  0.00    +0.000 A 
ATOM     14  C   UNL     1      36.030  55.927  59.573  0.00  0.00    +0.000 A 
ATOM     15  C   UNL     1      34.825  55.507  59.997  0.00  0.00    +0.000 A 
ATOM     16  C   UNL     1      34.262  54.264  59.737  0.00  0.00    +0.000 A 
ATOM     17  O   UNL     1      33.015  53.907  60.211  0.00  0.00    +0.000 OA
BRANCH  11  19
ATOM     18  C   UNL     1      34.799  50.954  59.453  0.00  0.00    +0.000 C 
ATOM     19  O   UNL     1      34.447  52.093  58.693  0.00  0.00    +0.000 OA
ENDBRANCH  11  19
ENDBRANCH   1  14
TORSDOF 3
ENDMDL
MODEL 5
REMARK VINA RESULT:      -6.6      1.720      2.941
REMARK  Name = 
REMARK  3 active torsions:
REMARK  status: ('A' for Active; 'I' for Inactive)
REMARK    1  A    between atoms: O_2  and  C_3
REMARK    2  A    between atoms: C_6  and  C_7
REMARK    3  A    between atoms: C_8  and  C_9
REMARK                            x       y       z     vdW  Elec       q    Type
REMARK                         _______ _______ _______ _____ _____    ______ ____
ROOT
ATOM      1  C   UNL     1      36.757  57.093  59.695  0.00  0.00    +0.000 C 
ATOM      2  C   UNL     1      36.618  58.160  59.068  0.00  0.00    +0.000 C 
ENDROOT
BRANCH   2   3
ATOM      3  C   UNL     1      35.708  58.406  57.994  0.00  0.00    +0.000 A 
ATOM      4  C   UNL     1      34.447  58.886  57.977  0.00  0.00    +0.000 A 
ATOM      5  C   UNL     1      33.672  59.077  56.874  0.00  0.00    +0.000 A 
ATOM      6  O   UNL     1      32.402  59.577  57.029  0.00  0.00    +0.000 OA
ATOM      7  C   UNL     1      34.218  58.753  55.656  0.00  0.00    +0.000 A 
ATOM      8  C   UNL     1      35.498  58.256  55.578  0.00  0.00    +0.000 A 
ATOM      9  O   UNL     1      36.055  57.925  54.325  0.00  0.00    +0.000 OA
ATOM     10  C   UNL     1      36.233  58.084  56.718  0.00  0.00    +0.000 A 
ENDBRANCH   2   3
BRANCH   1  14
ATOM     11  C   UNL     1      34.888  53.340  58.950  0.00  0.00    +0.000 A 
ATOM     12  C   UNL     1      36.111  53.711  58.449  0.00  0.00    +0.000 A 
ATOM     13  C   UNL     1      36.703  54.919  58.695  0.00  0.00    +0.000 A 
ATOM     14  C   UNL     1      36.062  55.882  59.504  0.00  0.00    +0.000 A 
ATOM     15  C   UNL     1      34.865  55.499  59.984  0.00  0.00    +0.000 A 
ATOM     16  C   UNL     1      34.249  54.277  59.746  0.00  0.00    +0.000 A 
ATOM     17  O   UNL     1      33.015  53.958  60.277  0.00  0.00    +0.000 OA
BRANCH  11  19
ATOM     18  C   UNL     1      34.641  50.959  59.441  0.00  0.00    +0.000 C 
ATOM     19  O   UNL     1      34.311  52.107  58.685  0.00  0.00    +0.000 OA
ENDBRANCH  11  19
ENDBRANCH   1  14
TORSDOF 3
ENDMDL
MODEL 6
REMARK VINA RESULT:      -6.4      1.371      5.568
REMARK  Name = 
REMARK  3 active torsions:
REMARK  status: ('A' for Active; 'I' for Inactive)
REMARK    1  A    between atoms: O_2  and  C_3
REMARK    2  A    between atoms: C_6  and  C_7
REMARK    3  A    between atoms: C_8  and  C_9
REMARK                            x       y       z     vdW  Elec       q    Type
REMARK                         _______ _______ _______ _____ _____    ______ ____
ROOT
ATOM      1  C   UNL     1      35.213  57.668  59.568  0.00  0.00    +0.000 C 
ATOM      2  C   UNL     1      35.222  56.606  60.217  0.00  0.00    +0.000 C 
ENDROOT
BRANCH   2   3
ATOM      3  C   UNL     1      35.271  55.281  59.684  0.00  0.00    +0.000 A 
ATOM      4  C   UNL     1      36.306  54.480  59.359  0.00  0.00    +0.000 A 
ATOM      5  C   UNL     1      36.224  53.220  58.852  0.00  0.00    +0.000 A 
ATOM      6  O   UNL     1      37.381  52.534  58.573  0.00  0.00    +0.000 OA
ATOM      7  C   UNL     1      34.967  52.703  58.647  0.00  0.00    +0.000 A 
ATOM      8  C   UNL     1      33.851  53.449  58.951  0.00  0.00    +0.000 A 
ATOM      9  O   UNL     1      32.564  52.916  58.739  0.00  0.00    +0.000 OA
ATOM     10  C   UNL     1      33.992  54.711  59.458  0.00  0.00    +0.000 A 
ENDBRANCH   2   3
BRANCH   1  14
ATOM     11  C   UNL     1      35.572  57.987  55.336  0.00  0.00    +0.000 A 
ATOM     12  C   UNL     1      36.468  57.331  56.144  0.00  0.00    +0.000 A 
ATOM     13  C   UNL     1      36.343  57.234  57.502  0.00  0.00    +0.000 A 
ATOM     14  C   UNL     1      35.248  57.826  58.167  0.00  0.00    +0.000 A 
ATOM     15  C   UNL     1      34.383  58.465  57.358  0.00  0.00    +0.000 A 
ATOM     16  C   UNL     1      34.493  58.573  55.978  0.00  0.00    +0.000 A 
ATOM     17  O   UNL     1      33.560  59.247  55.215  0.00  0.00    +0.000 OA
BRANCH  11  19
ATOM     18  C   UNL     1      36.732  58.869  53.374  0.00  0.00    +0.000 C 
ATOM     19  O   UNL     1      35.724  58.070  53.961  0.00  0.00    +0.000 OA
ENDBRANCH  11  19
ENDBRANCH   1  14
TORSDOF 3
ENDMDL
MODEL 7
REMARK VINA RESULT:      -6.3      4.516      6.195
REMARK  Name = 
REMARK  3 active torsions:
REMARK  status: ('A' for Active; 'I' for Inactive)
REMARK    1  A    between atoms: O_2  and  C_3
REMARK    2  A    between atoms: C_6  and  C_7
REMARK    3  A    between atoms: C_8  and  C_9
REMARK                            x       y       z     vdW  Elec       q    Type
REMARK                         _______ _______ _______ _____ _____    ______ ____
ROOT
ATOM      1  C   UNL     1      35.691  53.952  58.946  0.00  0.00    +0.000 C 
ATOM      2  C   UNL     1      36.745  54.497  58.569  0.00  0.00    +0.000 C 
ENDROOT
BRANCH   2   3
ATOM      3  C   UNL     1      38.074  54.142  58.957  0.00  0.00    +0.000 A 
ATOM      4  C   UNL     1      38.984  53.318  58.399  0.00  0.00    +0.000 A 
ATOM      5  C   UNL     1      40.234  53.059  58.871  0.00  0.00    +0.000 A 
ATOM      6  O   UNL     1      41.042  52.188  58.180  0.00  0.00    +0.000 OA
ATOM      7  C   UNL     1      40.617  53.694  60.027  0.00  0.00    +0.000 A 
ATOM      8  C   UNL     1      39.753  54.554  60.666  0.00  0.00    +0.000 A 
ATOM      9  O   UNL     1      40.149  55.204  61.852  0.00  0.00    +0.000 OA
ATOM     10  C   UNL     1      38.508  54.777  60.148  0.00  0.00    +0.000 A 
ENDBRANCH   2   3
BRANCH   1  14
ATOM     11  C   UNL     1      35.290  50.494  61.399  0.00  0.00    +0.000 A 
ATOM     12  C   UNL     1      35.485  50.463  60.040  0.00  0.00    +0.000 A 
ATOM     13  C   UNL     1      35.614  51.580  59.261  0.00  0.00    +0.000 A 
ATOM     14  C   UNL     1      35.547  52.868  59.836  0.00  0.00    +0.000 A 
ATOM     15  C   UNL     1      35.354  52.876  61.167  0.00  0.00    +0.000 A 
ATOM     16  C   UNL     1      35.223  51.753  61.973  0.00  0.00    +0.000 A 
ATOM     17  O   UNL     1      35.026  51.844  63.338  0.00  0.00    +0.000 OA
BRANCH  11  19
ATOM     18  C   UNL     1      33.939  48.643  62.249  0.00  0.00    +0.000 C 
ATOM     19  O   UNL     1      35.164  49.345  62.164  0.00  0.00    +0.000 OA
ENDBRANCH  11  19
ENDBRANCH   1  14
TORSDOF 3
ENDMDL
MODEL 8
REMARK VINA RESULT:      -6.3      4.231      6.157
REMARK  Name = 
REMARK  3 active torsions:
REMARK  status: ('A' for Active; 'I' for Inactive)
REMARK    1  A    between atoms: O_2  and  C_3
REMARK    2  A    between atoms: C_6  and  C_7
REMARK    3  A    between atoms: C_8  and  C_9
REMARK                            x       y       z     vdW  Elec       q    Type
REMARK                         _______ _______ _______ _____ _____    ______ ____
ROOT
ATOM      1  C   UNL     1      35.146  54.160  59.736  0.00  0.00    +0.000 C 
ATOM      2  C   UNL     1      36.124  54.851  59.396  0.00  0.00    +0.000 C 
ENDROOT
BRANCH   2   3
ATOM      3  C   UNL     1      37.503  54.544  59.617  0.00  0.00    +0.000 A 
ATOM      4  C   UNL     1      38.342  54.854  60.626  0.00  0.00    +0.000 A 
ATOM      5  C   UNL     1      39.653  54.498  60.724  0.00  0.00    +0.000 A 
ATOM      6  O   UNL     1      40.373  54.897  61.823  0.00  0.00    +0.000 OA
ATOM      7  C   UNL     1      40.181  53.750  59.700  0.00  0.00    +0.000 A 
ATOM      8  C   UNL     1      39.398  53.387  58.628  0.00  0.00    +0.000 A 
ATOM      9  O   UNL     1      39.944  52.620  57.579  0.00  0.00    +0.000 OA
ATOM     10  C   UNL     1      38.087  53.772  58.581  0.00  0.00    +0.000 A 
ENDBRANCH   2   3
BRANCH   1  14
ATOM     11  C   UNL     1      35.121  50.292  61.517  0.00  0.00    +0.000 A 
ATOM     12  C   UNL     1      34.949  50.530  60.176  0.00  0.00    +0.000 A 
ATOM     13  C   UNL     1      34.959  51.776  59.614  0.00  0.00    +0.000 A 
ATOM     14  C   UNL     1      35.153  52.924  60.413  0.00  0.00    +0.000 A 
ATOM     15  C   UNL     1      35.318  52.669  61.724  0.00  0.00    +0.000 A 
ATOM     16  C   UNL     1      35.312  51.410  62.312  0.00  0.00    +0.000 A 
ATOM     17  O   UNL     1      35.490  51.231  63.670  0.00  0.00    +0.000 OA
BRANCH  11  19
ATOM     18  C   UNL     1      33.896  48.374  62.408  0.00  0.00    +0.000 C 
ATOM     19  O   UNL     1      35.106  49.016  62.060  0.00  0.00    +0.000 OA
ENDBRANCH  11  19
ENDBRANCH   1  14
TORSDOF 3
ENDMDL
MODEL 9
REMARK VINA RESULT:      -6.1     12.308     14.618
REMARK  Name = 
REMARK  3 active torsions:
REMARK  status: ('A' for Active; 'I' for Inactive)
REMARK    1  A    between atoms: O_2  and  C_3
REMARK    2  A    between atoms: C_6  and  C_7
REMARK    3  A    between atoms: C_8  and  C_9
REMARK                            x       y       z     vdW  Elec       q    Type
REMARK                         _______ _______ _______ _____ _____    ______ ____
ROOT
ATOM      1  C   UNL     1      29.646  42.600  62.294  0.00  0.00    +0.000 C 
ATOM      2  C   UNL     1      30.046  41.875  61.365  0.00  0.00    +0.000 C 
ENDROOT
BRANCH   2   3
ATOM      3  C   UNL     1      30.364  42.290  60.035  0.00  0.00    +0.000 A 
ATOM      4  C   UNL     1      31.429  42.942  59.527  0.00  0.00    +0.000 A 
ATOM      5  C   UNL     1      31.618  43.286  58.223  0.00  0.00    +0.000 A 
ATOM      6  O   UNL     1      32.766  43.952  57.867  0.00  0.00    +0.000 OA
ATOM      7  C   UNL     1      30.633  42.939  57.330  0.00  0.00    +0.000 A 
ATOM      8  C   UNL     1      29.510  42.271  57.760  0.00  0.00    +0.000 A 
ATOM      9  O   UNL     1      28.501  41.918  56.840  0.00  0.00    +0.000 OA
ATOM     10  C   UNL     1      29.371  41.951  59.081  0.00  0.00    +0.000 A 
ENDBRANCH   2   3
BRANCH   1  14
ATOM     11  C   UNL     1      28.634  46.736  62.202  0.00  0.00    +0.000 A 
ATOM     12  C   UNL     1      27.718  45.713  62.188  0.00  0.00    +0.000 A 
ATOM     13  C   UNL     1      28.054  44.388  62.218  0.00  0.00    +0.000 A 
ATOM     14  C   UNL     1      29.408  43.990  62.266  0.00  0.00    +0.000 A 
ATOM     15  C   UNL     1      30.288  45.007  62.278  0.00  0.00    +0.000 A 
ATOM     16  C   UNL     1      29.966  46.358  62.248  0.00  0.00    +0.000 A 
ATOM     17  O   UNL     1      30.931  47.346  62.264  0.00  0.00    +0.000 OA
BRANCH  11  19
ATOM     18  C   UNL     1      27.215  48.531  61.341  0.00  0.00    +0.000 C 
ATOM     19  O   UNL     1      28.265  48.072  62.171  0.00  0.00    +0.000 OA
ENDBRANCH  11  19
ENDBRANCH   1  14
TORSDOF 3
ENDMDL
MODEL 10
REMARK VINA RESULT:      -6.1      4.411      7.038
REMARK  Name = 
REMARK  3 active torsions:
REMARK  status: ('A' for Active; 'I' for Inactive)
REMARK    1  A    between atoms: O_2  and  C_3
REMARK    2  A    between atoms: C_6  and  C_7
REMARK    3  A    between atoms: C_8  and  C_9
REMARK                            x       y       z     vdW  Elec       q    Type
REMARK                         _______ _______ _______ _____ _____    ______ ____
ROOT
ATOM      1  C   UNL     1      38.618  55.298  61.056  0.00  0.00    +0.000 C 
ATOM      2  C   UNL     1      39.811  54.955  61.134  0.00  0.00    +0.000 C 
ENDROOT
BRANCH   2   3
ATOM      3  C   UNL     1      40.351  53.669  60.820  0.00  0.00    +0.000 A 
ATOM      4  C   UNL     1      40.442  52.531  61.539  0.00  0.00    +0.000 A 
ATOM      5  C   UNL     1      40.986  51.355  61.123  0.00  0.00    +0.000 A 
ATOM      6  O   UNL     1      41.001  50.284  61.983  0.00  0.00    +0.000 OA
ATOM      7  C   UNL     1      41.495  51.312  59.847  0.00  0.00    +0.000 A 
ATOM      8  C   UNL     1      41.446  52.426  59.041  0.00  0.00    +0.000 A 
ATOM      9  O   UNL     1      41.969  52.377  57.733  0.00  0.00    +0.000 OA
ATOM     10  C   UNL     1      40.888  53.582  59.510  0.00  0.00    +0.000 A 
ENDBRANCH   2   3
BRANCH   1  14
ATOM     11  C   UNL     1      35.359  53.021  59.530  0.00  0.00    +0.000 A 
ATOM     12  C   UNL     1      36.219  53.759  58.756  0.00  0.00    +0.000 A 
ATOM     13  C   UNL     1      37.263  54.486  59.256  0.00  0.00    +0.000 A 
ATOM     14  C   UNL     1      37.518  54.518  60.644  0.00  0.00    +0.000 A 
ATOM     15  C   UNL     1      36.663  53.790  61.385  0.00  0.00    +0.000 A 
ATOM     16  C   UNL     1      35.598  53.044  60.895  0.00  0.00    +0.000 A 
ATOM     17  O   UNL     1      34.763  52.320  61.723  0.00  0.00    +0.000 OA
BRANCH  11  19
ATOM     18  C   UNL     1      33.078  52.902  58.660  0.00  0.00    +0.000 C 
ATOM     19  O   UNL     1      34.308  52.291  58.996  0.00  0.00    +0.000 OA
ENDBRANCH  11  19
ENDBRANCH   1  14
TORSDOF 3
ENDMDL
