REMARK  Name = 
REMARK  5 active torsions:
REMARK  status: ('A' for Active; 'I' for Inactive)
REMARK    1  A    between atoms: C_2  and  C_3
REMARK    2  A    between atoms: C_5  and  O_6
REMARK    3  A    between atoms: O_6  and  C_7
REMARK    4  A    between atoms: C_10  and  C_11
REMARK    5  A    between atoms: C_12  and  C_13
REMARK                            x       y       z     vdW  Elec       q    Type
REMARK                         _______ _______ _______ _____ _____    ______ ____
ROOT
ATOM      1  C   UNL     1      -1.381   1.170   0.595  0.00  0.00    +0.000 A 
ATOM      2  C   UNL     1      -0.789   0.323  -0.302  0.00  0.00    +0.000 A 
ATOM      3  C   UNL     1       0.566   0.114  -0.343  0.00  0.00    +0.000 A 
ATOM      4  C   UNL     1       1.452   0.734   0.507  0.00  0.00    +0.000 A 
ATOM      5  C   UNL     1       0.868   1.589   1.413  0.00  0.00    +0.000 A 
ATOM      6  C   UNL     1      -0.489   1.809   1.468  0.00  0.00    +0.000 A 
ENDROOT
BRANCH   4   7
ATOM      7  C   UNL     1       2.901   0.504   0.455  0.00  0.00    +0.000 C 
ATOM      8  C   UNL     1       3.514  -0.282  -0.368  0.00  0.00    +0.000 C 
BRANCH   8   9
ATOM      9  C   UNL     1       4.958  -0.508  -0.416  0.00  0.00    +0.000 A 
ATOM     10  C   UNL     1       5.458  -1.381  -1.356  0.00  0.00    +0.000 A 
ATOM     11  C   UNL     1       6.809  -1.666  -1.487  0.00  0.00    +0.000 A 
ATOM     12  O   UNL     1       7.302  -2.549  -2.439  0.00  0.00    +0.000 OA
ATOM     13  C   UNL     1       7.694  -1.040  -0.630  0.00  0.00    +0.000 A 
ATOM     14  C   UNL     1       7.234  -0.162   0.322  0.00  0.00    +0.000 A 
ATOM     15  O   UNL     1       8.086   0.487   1.202  0.00  0.00    +0.000 OA
ATOM     16  C   UNL     1       5.871   0.093   0.417  0.00  0.00    +0.000 A 
ENDBRANCH   8   9
ENDBRANCH   4   7
BRANCH   1  17
ATOM     17  O   UNL     1      -2.729   1.437   0.705  0.00  0.00    +0.000 OA
BRANCH  17  20
ATOM     18  C   UNL     1      -5.676   0.690  -0.916  0.00  0.00    +0.000 C 
ATOM     19  O   UNL     1      -4.845   1.323   0.156  0.00  0.00    +0.000 OA
ATOM     20  C   UNL     1      -3.542   0.612  -0.279  0.00  0.00    +0.000 C 
ATOM     21  C   UNL     1      -3.865  -0.597   0.920  0.00  0.00    +0.000 C 
ATOM     22  O   UNL     1      -2.646  -1.355   0.579  0.00  0.00    +0.000 OA
ATOM     23  C   UNL     1      -4.783  -1.458  -0.242  0.00  0.00    +0.000 C 
ATOM     24  O   UNL     1      -5.103  -2.536   0.750  0.00  0.00    +0.000 OA
ATOM     25  C   UNL     1      -6.158  -0.564   0.164  0.00  0.00    +0.000 C 
ATOM     26  O   UNL     1      -6.989  -1.207  -0.887  0.00  0.00    +0.000 OA
BRANCH  18  28
ATOM     27  O   UNL     1      -6.693   2.868  -0.691  0.00  0.00    +0.000 OA
ATOM     28  C   UNL     1      -7.026   1.553  -0.534  0.00  0.00    +0.000 C 
ENDBRANCH  18  28
ENDBRANCH  17  20
ENDBRANCH   1  17
TORSDOF 5
