REMARK  Name = 
REMARK  6 active torsions:
REMARK  status: ('A' for Active; 'I' for Inactive)
REMARK    1  A    between atoms: O_2  and  C_3
REMARK    2  A    between atoms: C_6  and  C_7
REMARK    3  A    between atoms: C_8  and  C_9
REMARK    4  A    between atoms: C_11  and  O_12
REMARK    5  A    between atoms: C_14  and  O_15
REMARK    6  A    between atoms: C_17  and  O_18
REMARK                            x       y       z     vdW  Elec       q    Type
REMARK                         _______ _______ _______ _____ _____    ______ ____
ROOT
ATOM      1  C   UNL     1      -1.063  -1.362  -0.088  0.00  0.00    +0.000 A 
ATOM      2  C   UNL     1      -0.846  -0.043   0.106  0.00  0.00    +0.000 A 
ATOM      3  C   UNL     1      -1.815   0.916   0.289  0.00  0.00    +0.000 A 
ATOM      4  C   UNL     1      -3.172   0.552   0.284  0.00  0.00    +0.000 A 
ATOM      5  C   UNL     1      -3.425  -0.784   0.089  0.00  0.00    +0.000 A 
ATOM      6  C   UNL     1      -2.435  -1.709  -0.090  0.00  0.00    +0.000 A 
ENDROOT
BRANCH   1   8
ATOM      7  C   UNL     1       1.061  -2.402  -0.327  0.00  0.00    +0.000 C 
ATOM      8  C   UNL     1      -0.180  -2.467  -0.291  0.00  0.00    +0.000 C 
BRANCH   7  12
ATOM      9  C   UNL     1       3.898   0.718   0.045  0.00  0.00    +0.000 A 
ATOM     10  C   UNL     1       2.562   1.061   0.148  0.00  0.00    +0.000 A 
ATOM     11  C   UNL     1       1.624   0.060   0.030  0.00  0.00    +0.000 A 
ATOM     12  C   UNL     1       1.868  -1.249  -0.180  0.00  0.00    +0.000 A 
ATOM     13  C   UNL     1       3.244  -1.543  -0.277  0.00  0.00    +0.000 A 
ATOM     14  C   UNL     1       4.206  -0.595  -0.168  0.00  0.00    +0.000 A 
ATOM     15  O   UNL     1       5.571  -0.923  -0.269  0.00  0.00    +0.000 OA
BRANCH   9  17
ATOM     16  C   UNL     1       4.678   3.027   0.371  0.00  0.00    +0.000 C 
ATOM     17  O   UNL     1       4.913   1.663   0.152  0.00  0.00    +0.000 OA
ENDBRANCH   9  17
ENDBRANCH   7  12
ENDBRANCH   1   8
BRANCH   3  18
ATOM     18  O   UNL     1      -1.573   2.264   0.487  0.00  0.00    +0.000 OA
ATOM     19  C   UNL     1      -0.291   2.804   0.522  0.00  0.00    +0.000 C 
ENDBRANCH   3  18
BRANCH   4  20
ATOM     20  O   UNL     1      -4.166   1.498   0.467  0.00  0.00    +0.000 OA
ATOM     21  C   UNL     1      -4.762   2.206  -0.618  0.00  0.00    +0.000 C 
ENDBRANCH   4  20
BRANCH   5  22
ATOM     22  O   UNL     1      -4.759  -1.168   0.080  0.00  0.00    +0.000 OA
ATOM     23  C   UNL     1      -5.137  -2.524  -0.115  0.00  0.00    +0.000 C 
ENDBRANCH   5  22
TORSDOF 6
