REMARK  Name = 
REMARK  4 active torsions:
REMARK  status: ('A' for Active; 'I' for Inactive)
REMARK    1  A    between atoms: O_2  and  C_3
REMARK    2  A    between atoms: C_5  and  C_6
REMARK    3  A    between atoms: C_7  and  C_8
REMARK    4  A    between atoms: C_17  and  O_18
REMARK                            x       y       z     vdW  Elec       q    Type
REMARK                         _______ _______ _______ _____ _____    ______ ____
ROOT
ATOM      1  C   UNL     1       3.635   0.344   0.675  0.00  0.00    +0.000 A 
ATOM      2  C   UNL     1       2.292   0.519   0.932  0.00  0.00    +0.000 A 
ATOM      3  C   UNL     1       1.361  -0.011   0.032  0.00  0.00    +0.000 A 
ATOM      4  C   UNL     1       1.839  -0.682  -1.068  0.00  0.00    +0.000 A 
ATOM      5  C   UNL     1       3.182  -0.856  -1.324  0.00  0.00    +0.000 A 
ATOM      6  C   UNL     1       4.101  -0.337  -0.441  0.00  0.00    +0.000 A 
ENDROOT
BRANCH   1   8
ATOM      7  C   UNL     1       5.952   0.720   1.354  0.00  0.00    +0.000 C 
ATOM      8  O   UNL     1       4.566   0.879   1.585  0.00  0.00    +0.000 OA
ENDBRANCH   1   8
BRANCH   3   9
ATOM      9  C   UNL     1      -0.029   0.195   0.339  0.00  0.00    +0.000 C 
ATOM     10  C   UNL     1      -1.039  -0.225  -0.381  0.00  0.00    +0.000 C 
BRANCH  10  11
ATOM     11  C   UNL     1      -2.383   0.086   0.101  0.00  0.00    +0.000 A 
ATOM     12  C   UNL     1      -2.614   0.791   1.264  0.00  0.00    +0.000 A 
ATOM     13  C   UNL     1      -3.894   1.072   1.699  0.00  0.00    +0.000 A 
ATOM     14  C   UNL     1      -5.002   0.659   0.988  0.00  0.00    +0.000 A 
ATOM     15  O   UNL     1      -6.301   0.944   1.427  0.00  0.00    +0.000 OA
ATOM     16  C   UNL     1      -4.773  -0.046  -0.175  0.00  0.00    +0.000 A 
ATOM     17  O   UNL     1      -5.906  -0.457  -0.883  0.00  0.00    +0.000 OA
ATOM     18  C   UNL     1      -3.495  -0.327  -0.610  0.00  0.00    +0.000 A 
ENDBRANCH  10  11
ENDBRANCH   3   9
BRANCH   5  19
ATOM     19  O   UNL     1       3.556  -1.553  -2.471  0.00  0.00    +0.000 OA
ATOM     20  C   UNL     1       4.950  -1.717  -2.708  0.00  0.00    +0.000 C 
ENDBRANCH   5  19
TORSDOF 4
