MODEL 1
REMARK VINA RESULT:      -7.5      0.000      0.000
REMARK  Name = 
REMARK  5 active torsions:
REMARK  status: ('A' for Active; 'I' for Inactive)
REMARK    1  A    between atoms: C_2  and  C_3
REMARK    2  A    between atoms: C_5  and  O_6
REMARK    3  A    between atoms: O_6  and  C_7
REMARK    4  A    between atoms: C_12  and  C_13
REMARK    5  A    between atoms: C_14  and  C_15
REMARK                            x       y       z     vdW  Elec       q    Type
REMARK                         _______ _______ _______ _____ _____    ______ ____
ROOT
ATOM      1  C   UNL     1      37.839  54.426  60.986  0.00  0.00    +0.000 A 
ATOM      2  C   UNL     1      36.874  53.611  61.519  0.00  0.00    +0.000 A 
ATOM      3  C   UNL     1      35.576  53.624  61.105  0.00  0.00    +0.000 A 
ATOM      4  O   UNL     1      34.602  52.780  61.663  0.00  0.00    +0.000 OA
ATOM      5  C   UNL     1      35.251  54.501  60.112  0.00  0.00    +0.000 A 
ATOM      6  C   UNL     1      36.170  55.351  59.531  0.00  0.00    +0.000 A 
ATOM      7  C   UNL     1      37.455  55.283  59.996  0.00  0.00    +0.000 A 
ENDROOT
BRANCH   6   8
ATOM      8  C   UNL     1      35.726  56.260  58.470  0.00  0.00    +0.000 C 
ATOM      9  C   UNL     1      36.365  56.456  57.365  0.00  0.00    +0.000 C 
BRANCH   9  10
ATOM     10  C   UNL     1      36.016  57.325  56.260  0.00  0.00    +0.000 A 
ATOM     11  C   UNL     1      36.653  57.334  55.044  0.00  0.00    +0.000 A 
ATOM     12  C   UNL     1      36.269  58.197  54.017  0.00  0.00    +0.000 A 
ATOM     13  C   UNL     1      35.219  59.065  54.232  0.00  0.00    +0.000 A 
ATOM     14  O   UNL     1      34.876  59.910  53.165  0.00  0.00    +0.000 OA
ATOM     15  C   UNL     1      34.566  59.081  55.428  0.00  0.00    +0.000 A 
ATOM     16  C   UNL     1      34.976  58.215  56.413  0.00  0.00    +0.000 A 
ENDBRANCH   9  10
ENDBRANCH   6   8
BRANCH   1  17
ATOM     17  O   UNL     1      39.083  54.256  61.542  0.00  0.00    +0.000 OA
BRANCH  17  20
ATOM     18  C   UNL     1      41.341  52.711  59.305  0.00  0.00    +0.000 C 
ATOM     19  O   UNL     1      40.927  53.719  60.348  0.00  0.00    +0.000 OA
ATOM     20  C   UNL     1      39.736  53.013  60.934  0.00  0.00    +0.000 C 
ATOM     21  C   UNL     1      40.436  52.490  62.397  0.00  0.00    +0.000 C 
ATOM     22  O   UNL     1      41.179  53.717  62.797  0.00  0.00    +0.000 OA
ATOM     23  C   UNL     1      41.769  51.813  61.623  0.00  0.00    +0.000 C 
ATOM     24  O   UNL     1      41.532  50.502  62.296  0.00  0.00    +0.000 OA
ATOM     25  C   UNL     1      41.023  51.291  60.195  0.00  0.00    +0.000 C 
ATOM     26  O   UNL     1      42.255  50.611  59.726  0.00  0.00    +0.000 OA
BRANCH  18  28
ATOM     27  O   UNL     1      40.085  52.639  57.260  0.00  0.00    +0.000 OA
ATOM     28  C   UNL     1      39.865  52.675  58.623  0.00  0.00    +0.000 C 
ENDBRANCH  18  28
ENDBRANCH  17  20
ENDBRANCH   1  17
TORSDOF 5
ENDMDL
MODEL 2
REMARK VINA RESULT:      -7.1      2.742      4.293
REMARK  Name = 
REMARK  5 active torsions:
REMARK  status: ('A' for Active; 'I' for Inactive)
REMARK    1  A    between atoms: C_2  and  C_3
REMARK    2  A    between atoms: C_5  and  O_6
REMARK    3  A    between atoms: O_6  and  C_7
REMARK    4  A    between atoms: C_12  and  C_13
REMARK    5  A    between atoms: C_14  and  C_15
REMARK                            x       y       z     vdW  Elec       q    Type
REMARK                         _______ _______ _______ _____ _____    ______ ____
ROOT
ATOM      1  C   UNL     1      37.475  54.126  59.412  0.00  0.00    +0.000 A 
ATOM      2  C   UNL     1      37.958  54.761  60.526  0.00  0.00    +0.000 A 
ATOM      3  C   UNL     1      37.787  56.093  60.759  0.00  0.00    +0.000 A 
ATOM      4  O   UNL     1      38.288  56.724  61.909  0.00  0.00    +0.000 OA
ATOM      5  C   UNL     1      37.098  56.802  59.819  0.00  0.00    +0.000 A 
ATOM      6  C   UNL     1      36.584  56.229  58.673  0.00  0.00    +0.000 A 
ATOM      7  C   UNL     1      36.794  54.887  58.506  0.00  0.00    +0.000 A 
ENDROOT
BRANCH   6   8
ATOM      8  C   UNL     1      35.859  57.073  57.720  0.00  0.00    +0.000 C 
ATOM      9  C   UNL     1      34.791  57.740  58.005  0.00  0.00    +0.000 C 
BRANCH   9  10
ATOM     10  C   UNL     1      34.002  58.598  57.144  0.00  0.00    +0.000 A 
ATOM     11  C   UNL     1      32.890  59.295  57.546  0.00  0.00    +0.000 A 
ATOM     12  C   UNL     1      32.171  60.107  56.667  0.00  0.00    +0.000 A 
ATOM     13  C   UNL     1      32.592  60.209  55.358  0.00  0.00    +0.000 A 
ATOM     14  O   UNL     1      31.832  61.038  54.518  0.00  0.00    +0.000 OA
ATOM     15  C   UNL     1      33.691  59.529  54.928  0.00  0.00    +0.000 A 
ATOM     16  C   UNL     1      34.371  58.740  55.826  0.00  0.00    +0.000 A 
ENDBRANCH   9  10
ENDBRANCH   6   8
BRANCH   1  17
ATOM     17  O   UNL     1      37.755  52.783  59.369  0.00  0.00    +0.000 OA
BRANCH  17  20
ATOM     18  C   UNL     1      34.807  50.851  59.628  0.00  0.00    +0.000 C 
ATOM     19  O   UNL     1      36.152  51.218  59.054  0.00  0.00    +0.000 OA
ATOM     20  C   UNL     1      36.709  52.028  60.192  0.00  0.00    +0.000 C 
ATOM     21  C   UNL     1      37.811  50.885  60.811  0.00  0.00    +0.000 C 
ATOM     22  O   UNL     1      38.412  50.375  59.548  0.00  0.00    +0.000 OA
ATOM     23  C   UNL     1      36.652  49.666  60.872  0.00  0.00    +0.000 C 
ATOM     24  O   UNL     1      36.949  49.414  62.313  0.00  0.00    +0.000 OA
ATOM     25  C   UNL     1      35.289  50.598  61.243  0.00  0.00    +0.000 C 
ATOM     26  O   UNL     1      34.434  49.396  61.407  0.00  0.00    +0.000 OA
BRANCH  18  28
ATOM     27  O   UNL     1      33.541  52.768  58.929  0.00  0.00    +0.000 OA
ATOM     28  C   UNL     1      34.413  52.399  59.934  0.00  0.00    +0.000 C 
ENDBRANCH  18  28
ENDBRANCH  17  20
ENDBRANCH   1  17
TORSDOF 5
ENDMDL
MODEL 3
REMARK VINA RESULT:      -6.9      2.510      8.247
REMARK  Name = 
REMARK  5 active torsions:
REMARK  status: ('A' for Active; 'I' for Inactive)
REMARK    1  A    between atoms: C_2  and  C_3
REMARK    2  A    between atoms: C_5  and  O_6
REMARK    3  A    between atoms: O_6  and  C_7
REMARK    4  A    between atoms: C_12  and  C_13
REMARK    5  A    between atoms: C_14  and  C_15
REMARK                            x       y       z     vdW  Elec       q    Type
REMARK                         _______ _______ _______ _____ _____    ______ ____
ROOT
ATOM      1  C   UNL     1      35.207  56.234  58.759  0.00  0.00    +0.000 A 
ATOM      2  C   UNL     1      34.379  55.439  59.507  0.00  0.00    +0.000 A 
ATOM      3  C   UNL     1      34.770  54.246  60.039  0.00  0.00    +0.000 A 
ATOM      4  O   UNL     1      33.905  53.447  60.804  0.00  0.00    +0.000 OA
ATOM      5  C   UNL     1      36.053  53.852  59.798  0.00  0.00    +0.000 A 
ATOM      6  C   UNL     1      36.942  54.601  59.053  0.00  0.00    +0.000 A 
ATOM      7  C   UNL     1      36.480  55.787  58.551  0.00  0.00    +0.000 A 
ENDROOT
BRANCH   6   8
ATOM      8  C   UNL     1      38.301  54.094  58.847  0.00  0.00    +0.000 C 
ATOM      9  C   UNL     1      38.738  52.974  59.319  0.00  0.00    +0.000 C 
BRANCH   9  10
ATOM     10  C   UNL     1      40.054  52.384  59.175  0.00  0.00    +0.000 A 
ATOM     11  C   UNL     1      40.561  51.402  59.990  0.00  0.00    +0.000 A 
ATOM     12  C   UNL     1      41.839  50.873  59.800  0.00  0.00    +0.000 A 
ATOM     13  C   UNL     1      42.612  51.353  58.764  0.00  0.00    +0.000 A 
ATOM     14  O   UNL     1      43.888  50.786  58.620  0.00  0.00    +0.000 OA
ATOM     15  C   UNL     1      42.138  52.328  57.938  0.00  0.00    +0.000 A 
ATOM     16  C   UNL     1      40.875  52.822  58.160  0.00  0.00    +0.000 A 
ENDBRANCH   9  10
ENDBRANCH   6   8
BRANCH   1  17
ATOM     17  O   UNL     1      34.619  57.393  58.317  0.00  0.00    +0.000 OA
BRANCH  17  20
ATOM     18  C   UNL     1      35.772  58.752  55.265  0.00  0.00    +0.000 C 
ATOM     19  O   UNL     1      34.739  58.451  56.321  0.00  0.00    +0.000 OA
ATOM     20  C   UNL     1      35.637  58.188  57.498  0.00  0.00    +0.000 C 
ATOM     21  C   UNL     1      35.392  59.647  58.344  0.00  0.00    +0.000 C 
ATOM     22  O   UNL     1      33.916  59.792  58.215  0.00  0.00    +0.000 OA
ATOM     23  C   UNL     1      35.706  60.593  56.987  0.00  0.00    +0.000 C 
ATOM     24  O   UNL     1      36.743  61.368  57.729  0.00  0.00    +0.000 OA
ATOM     25  C   UNL     1      36.871  59.621  56.236  0.00  0.00    +0.000 C 
ATOM     26  O   UNL     1      37.135  60.638  55.188  0.00  0.00    +0.000 OA
BRANCH  18  28
ATOM     27  O   UNL     1      37.359  57.169  54.401  0.00  0.00    +0.000 OA
ATOM     28  C   UNL     1      36.571  57.357  55.520  0.00  0.00    +0.000 C 
ENDBRANCH  18  28
ENDBRANCH  17  20
ENDBRANCH   1  17
TORSDOF 5
ENDMDL
MODEL 4
REMARK VINA RESULT:      -6.8      1.827      2.046
REMARK  Name = 
REMARK  5 active torsions:
REMARK  status: ('A' for Active; 'I' for Inactive)
REMARK    1  A    between atoms: C_2  and  C_3
REMARK    2  A    between atoms: C_5  and  O_6
REMARK    3  A    between atoms: O_6  and  C_7
REMARK    4  A    between atoms: C_12  and  C_13
REMARK    5  A    between atoms: C_14  and  C_15
REMARK                            x       y       z     vdW  Elec       q    Type
REMARK                         _______ _______ _______ _____ _____    ______ ____
ROOT
ATOM      1  C   UNL     1      36.736  54.317  60.617  0.00  0.00    +0.000 A 
ATOM      2  C   UNL     1      35.437  53.912  60.785  0.00  0.00    +0.000 A 
ATOM      3  C   UNL     1      34.393  54.447  60.091  0.00  0.00    +0.000 A 
ATOM      4  O   UNL     1      33.070  54.017  60.277  0.00  0.00    +0.000 OA
ATOM      5  C   UNL     1      34.686  55.432  59.193  0.00  0.00    +0.000 A 
ATOM      6  C   UNL     1      35.969  55.890  58.973  0.00  0.00    +0.000 A 
ATOM      7  C   UNL     1      36.967  55.307  59.704  0.00  0.00    +0.000 A 
ENDROOT
BRANCH   6   8
ATOM      8  C   UNL     1      36.185  56.953  57.988  0.00  0.00    +0.000 C 
ATOM      9  C   UNL     1      35.241  57.530  57.322  0.00  0.00    +0.000 C 
BRANCH   9  10
ATOM     10  C   UNL     1      35.344  58.583  56.332  0.00  0.00    +0.000 A 
ATOM     11  C   UNL     1      36.481  59.311  56.084  0.00  0.00    +0.000 A 
ATOM     12  C   UNL     1      36.517  60.315  55.115  0.00  0.00    +0.000 A 
ATOM     13  C   UNL     1      35.377  60.581  54.387  0.00  0.00    +0.000 A 
ATOM     14  O   UNL     1      35.470  61.600  53.427  0.00  0.00    +0.000 OA
ATOM     15  C   UNL     1      34.232  59.876  54.609  0.00  0.00    +0.000 A 
ATOM     16  C   UNL     1      34.239  58.896  55.573  0.00  0.00    +0.000 A 
ENDBRANCH   9  10
ENDBRANCH   6   8
BRANCH   1  17
ATOM     17  O   UNL     1      37.636  53.652  61.411  0.00  0.00    +0.000 OA
BRANCH  17  20
ATOM     18  C   UNL     1      39.853  51.415  59.808  0.00  0.00    +0.000 C 
ATOM     19  O   UNL     1      39.451  52.421  60.857  0.00  0.00    +0.000 OA
ATOM     20  C   UNL     1      37.955  52.297  60.777  0.00  0.00    +0.000 C 
ATOM     21  C   UNL     1      37.691  51.405  62.205  0.00  0.00    +0.000 C 
ATOM     22  O   UNL     1      38.594  52.125  63.145  0.00  0.00    +0.000 OA
ATOM     23  C   UNL     1      38.853  50.254  61.810  0.00  0.00    +0.000 C 
ATOM     24  O   UNL     1      37.865  49.150  61.993  0.00  0.00    +0.000 OA
ATOM     25  C   UNL     1      38.664  50.237  60.127  0.00  0.00    +0.000 C 
ATOM     26  O   UNL     1      39.610  49.105  59.969  0.00  0.00    +0.000 OA
BRANCH  18  28
ATOM     27  O   UNL     1      39.815  52.602  57.720  0.00  0.00    +0.000 OA
ATOM     28  C   UNL     1      38.932  52.108  58.660  0.00  0.00    +0.000 C 
ENDBRANCH  18  28
ENDBRANCH  17  20
ENDBRANCH   1  17
TORSDOF 5
ENDMDL
MODEL 5
REMARK VINA RESULT:      -6.7      4.369      6.474
REMARK  Name = 
REMARK  5 active torsions:
REMARK  status: ('A' for Active; 'I' for Inactive)
REMARK    1  A    between atoms: C_2  and  C_3
REMARK    2  A    between atoms: C_5  and  O_6
REMARK    3  A    between atoms: O_6  and  C_7
REMARK    4  A    between atoms: C_12  and  C_13
REMARK    5  A    between atoms: C_14  and  C_15
REMARK                            x       y       z     vdW  Elec       q    Type
REMARK                         _______ _______ _______ _____ _____    ______ ____
ROOT
ATOM      1  C   UNL     1      36.386  55.546  58.542  0.00  0.00    +0.000 A 
ATOM      2  C   UNL     1      36.286  56.296  57.400  0.00  0.00    +0.000 A 
ATOM      3  C   UNL     1      35.626  57.488  57.344  0.00  0.00    +0.000 A 
ATOM      4  O   UNL     1      35.537  58.242  56.163  0.00  0.00    +0.000 OA
ATOM      5  C   UNL     1      35.048  57.929  58.498  0.00  0.00    +0.000 A 
ATOM      6  C   UNL     1      35.107  57.226  59.685  0.00  0.00    +0.000 A 
ATOM      7  C   UNL     1      35.786  56.039  59.666  0.00  0.00    +0.000 A 
ENDROOT
BRANCH   6   8
ATOM      8  C   UNL     1      34.453  57.781  60.873  0.00  0.00    +0.000 C 
ATOM      9  C   UNL     1      33.507  58.659  60.839  0.00  0.00    +0.000 C 
BRANCH   9  10
ATOM     10  C   UNL     1      32.798  59.269  61.946  0.00  0.00    +0.000 A 
ATOM     11  C   UNL     1      31.568  59.872  61.847  0.00  0.00    +0.000 A 
ATOM     12  C   UNL     1      30.936  60.442  62.952  0.00  0.00    +0.000 A 
ATOM     13  C   UNL     1      31.565  60.398  64.178  0.00  0.00    +0.000 A 
ATOM     14  O   UNL     1      30.884  60.987  65.254  0.00  0.00    +0.000 OA
ATOM     15  C   UNL     1      32.787  59.807  64.310  0.00  0.00    +0.000 A 
ATOM     16  C   UNL     1      33.375  59.257  63.195  0.00  0.00    +0.000 A 
ENDBRANCH   9  10
ENDBRANCH   6   8
BRANCH   1  17
ATOM     17  O   UNL     1      37.091  54.380  58.385  0.00  0.00    +0.000 OA
BRANCH  17  20
ATOM     18  C   UNL     1      35.040  51.517  58.686  0.00  0.00    +0.000 C 
ATOM     19  O   UNL     1      36.132  52.355  58.070  0.00  0.00    +0.000 OA
ATOM     20  C   UNL     1      36.430  53.280  59.218  0.00  0.00    +0.000 C 
ATOM     21  C   UNL     1      37.900  52.589  59.735  0.00  0.00    +0.000 C 
ATOM     22  O   UNL     1      38.568  52.361  58.424  0.00  0.00    +0.000 OA
ATOM     23  C   UNL     1      37.255  51.035  59.791  0.00  0.00    +0.000 C 
ATOM     24  O   UNL     1      37.704  50.868  61.205  0.00  0.00    +0.000 OA
ATOM     25  C   UNL     1      35.673  51.409  60.265  0.00  0.00    +0.000 C 
ATOM     26  O   UNL     1      35.311  49.978  60.412  0.00  0.00    +0.000 OA
BRANCH  18  28
ATOM     27  O   UNL     1      32.933  52.641  58.434  0.00  0.00    +0.000 OA
ATOM     28  C   UNL     1      34.141  52.815  59.080  0.00  0.00    +0.000 C 
ENDBRANCH  18  28
ENDBRANCH  17  20
ENDBRANCH   1  17
TORSDOF 5
ENDMDL
MODEL 6
REMARK VINA RESULT:      -6.7      4.148      9.160
REMARK  Name = 
REMARK  5 active torsions:
REMARK  status: ('A' for Active; 'I' for Inactive)
REMARK    1  A    between atoms: C_2  and  C_3
REMARK    2  A    between atoms: C_5  and  O_6
REMARK    3  A    between atoms: O_6  and  C_7
REMARK    4  A    between atoms: C_12  and  C_13
REMARK    5  A    between atoms: C_14  and  C_15
REMARK                            x       y       z     vdW  Elec       q    Type
REMARK                         _______ _______ _______ _____ _____    ______ ____
ROOT
ATOM      1  C   UNL     1      33.840  58.789  57.857  0.00  0.00    +0.000 A 
ATOM      2  C   UNL     1      33.668  59.650  58.909  0.00  0.00    +0.000 A 
ATOM      3  C   UNL     1      33.923  59.308  60.203  0.00  0.00    +0.000 A 
ATOM      4  O   UNL     1      33.742  60.207  61.267  0.00  0.00    +0.000 OA
ATOM      5  C   UNL     1      34.371  58.040  60.431  0.00  0.00    +0.000 A 
ATOM      6  C   UNL     1      34.567  57.119  59.421  0.00  0.00    +0.000 A 
ATOM      7  C   UNL     1      34.290  57.532  58.147  0.00  0.00    +0.000 A 
ENDROOT
BRANCH   6   8
ATOM      8  C   UNL     1      35.050  55.780  59.765  0.00  0.00    +0.000 C 
ATOM      9  C   UNL     1      34.294  54.738  59.871  0.00  0.00    +0.000 C 
BRANCH   9  10
ATOM     10  C   UNL     1      34.667  53.378  60.203  0.00  0.00    +0.000 A 
ATOM     11  C   UNL     1      35.284  53.002  61.370  0.00  0.00    +0.000 A 
ATOM     12  C   UNL     1      35.619  51.673  61.633  0.00  0.00    +0.000 A 
ATOM     13  C   UNL     1      35.321  50.712  60.690  0.00  0.00    +0.000 A 
ATOM     14  O   UNL     1      35.681  49.392  61.006  0.00  0.00    +0.000 OA
ATOM     15  C   UNL     1      34.710  51.052  59.521  0.00  0.00    +0.000 A 
ATOM     16  C   UNL     1      34.397  52.373  59.302  0.00  0.00    +0.000 A 
ENDBRANCH   9  10
ENDBRANCH   6   8
BRANCH   1  17
ATOM     17  O   UNL     1      33.526  59.329  56.635  0.00  0.00    +0.000 OA
BRANCH  17  20
ATOM     18  C   UNL     1      35.639  58.528  53.918  0.00  0.00    +0.000 C 
ATOM     19  O   UNL     1      34.321  58.862  54.570  0.00  0.00    +0.000 OA
ATOM     20  C   UNL     1      34.812  59.521  55.829  0.00  0.00    +0.000 C 
ATOM     21  C   UNL     1      34.483  61.142  55.420  0.00  0.00    +0.000 C 
ATOM     22  O   UNL     1      33.129  61.002  54.817  0.00  0.00    +0.000 OA
ATOM     23  C   UNL     1      35.267  61.022  53.935  0.00  0.00    +0.000 C 
ATOM     24  O   UNL     1      36.120  62.204  54.256  0.00  0.00    +0.000 OA
ATOM     25  C   UNL     1      36.495  59.936  54.358  0.00  0.00    +0.000 C 
ATOM     26  O   UNL     1      37.150  60.063  53.033  0.00  0.00    +0.000 OA
BRANCH  18  28
ATOM     27  O   UNL     1      37.196  56.906  54.763  0.00  0.00    +0.000 OA
ATOM     28  C   UNL     1      36.185  57.726  55.224  0.00  0.00    +0.000 C 
ENDBRANCH  18  28
ENDBRANCH  17  20
ENDBRANCH   1  17
TORSDOF 5
ENDMDL
MODEL 7
REMARK VINA RESULT:      -6.6      4.438      8.738
REMARK  Name = 
REMARK  5 active torsions:
REMARK  status: ('A' for Active; 'I' for Inactive)
REMARK    1  A    between atoms: C_2  and  C_3
REMARK    2  A    between atoms: C_5  and  O_6
REMARK    3  A    between atoms: O_6  and  C_7
REMARK    4  A    between atoms: C_12  and  C_13
REMARK    5  A    between atoms: C_14  and  C_15
REMARK                            x       y       z     vdW  Elec       q    Type
REMARK                         _______ _______ _______ _____ _____    ______ ____
ROOT
ATOM      1  C   UNL     1      35.207  59.625  58.636  0.00  0.00    +0.000 A 
ATOM      2  C   UNL     1      34.466  60.446  59.445  0.00  0.00    +0.000 A 
ATOM      3  C   UNL     1      33.756  59.994  60.516  0.00  0.00    +0.000 A 
ATOM      4  O   UNL     1      33.003  60.853  61.334  0.00  0.00    +0.000 OA
ATOM      5  C   UNL     1      33.804  58.655  60.771  0.00  0.00    +0.000 A 
ATOM      6  C   UNL     1      34.529  57.769  59.999  0.00  0.00    +0.000 A 
ATOM      7  C   UNL     1      35.217  58.294  58.940  0.00  0.00    +0.000 A 
ENDROOT
BRANCH   6   8
ATOM      8  C   UNL     1      34.520  56.347  60.351  0.00  0.00    +0.000 C 
ATOM      9  C   UNL     1      34.765  55.390  59.520  0.00  0.00    +0.000 C 
BRANCH   9  10
ATOM     10  C   UNL     1      34.781  53.962  59.763  0.00  0.00    +0.000 A 
ATOM     11  C   UNL     1      34.438  53.009  58.837  0.00  0.00    +0.000 A 
ATOM     12  C   UNL     1      34.474  51.646  59.132  0.00  0.00    +0.000 A 
ATOM     13  C   UNL     1      34.866  51.246  60.393  0.00  0.00    +0.000 A 
ATOM     14  O   UNL     1      34.884  49.864  60.635  0.00  0.00    +0.000 OA
ATOM     15  C   UNL     1      35.212  52.168  61.336  0.00  0.00    +0.000 A 
ATOM     16  C   UNL     1      35.163  53.500  61.003  0.00  0.00    +0.000 A 
ENDBRANCH   9  10
ENDBRANCH   6   8
BRANCH   1  17
ATOM     17  O   UNL     1      35.847  60.278  57.612  0.00  0.00    +0.000 OA
BRANCH  17  20
ATOM     18  C   UNL     1      34.636  60.236  54.292  0.00  0.00    +0.000 C 
ATOM     19  O   UNL     1      35.429  60.790  55.448  0.00  0.00    +0.000 OA
ATOM     20  C   UNL     1      35.551  59.555  56.296  0.00  0.00    +0.000 C 
ATOM     21  C   UNL     1      37.181  59.176  55.973  0.00  0.00    +0.000 C 
ATOM     22  O   UNL     1      37.798  60.528  56.066  0.00  0.00    +0.000 OA
ATOM     23  C   UNL     1      36.968  59.276  54.306  0.00  0.00    +0.000 C 
ATOM     24  O   UNL     1      37.537  57.909  54.121  0.00  0.00    +0.000 OA
ATOM     25  C   UNL     1      35.378  58.704  54.195  0.00  0.00    +0.000 C 
ATOM     26  O   UNL     1      35.412  58.711  52.712  0.00  0.00    +0.000 OA
BRANCH  18  28
ATOM     27  O   UNL     1      32.282  60.194  54.765  0.00  0.00    +0.000 OA
ATOM     28  C   UNL     1      33.458  59.662  55.256  0.00  0.00    +0.000 C 
ENDBRANCH  18  28
ENDBRANCH  17  20
ENDBRANCH   1  17
TORSDOF 5
ENDMDL
MODEL 8
REMARK VINA RESULT:      -6.6      5.849      9.505
REMARK  Name = 
REMARK  5 active torsions:
REMARK  status: ('A' for Active; 'I' for Inactive)
REMARK    1  A    between atoms: C_2  and  C_3
REMARK    2  A    between atoms: C_5  and  O_6
REMARK    3  A    between atoms: O_6  and  C_7
REMARK    4  A    between atoms: C_12  and  C_13
REMARK    5  A    between atoms: C_14  and  C_15
REMARK                            x       y       z     vdW  Elec       q    Type
REMARK                         _______ _______ _______ _____ _____    ______ ____
ROOT
ATOM      1  C   UNL     1      35.174  50.921  60.965  0.00  0.00    +0.000 A 
ATOM      2  C   UNL     1      35.555  51.446  62.173  0.00  0.00    +0.000 A 
ATOM      3  C   UNL     1      35.333  50.819  63.362  0.00  0.00    +0.000 A 
ATOM      4  O   UNL     1      35.733  51.374  64.589  0.00  0.00    +0.000 OA
ATOM      5  C   UNL     1      34.700  49.611  63.316  0.00  0.00    +0.000 A 
ATOM      6  C   UNL     1      34.289  49.023  62.138  0.00  0.00    +0.000 A 
ATOM      7  C   UNL     1      34.544  49.710  60.983  0.00  0.00    +0.000 A 
ENDROOT
BRANCH   6   8
ATOM      8  C   UNL     1      33.616  47.723  62.190  0.00  0.00    +0.000 C 
ATOM      9  C   UNL     1      32.343  47.556  62.048  0.00  0.00    +0.000 C 
BRANCH   9  10
ATOM     10  C   UNL     1      31.582  46.324  62.082  0.00  0.00    +0.000 A 
ATOM     11  C   UNL     1      30.257  46.234  62.432  0.00  0.00    +0.000 A 
ATOM     12  C   UNL     1      29.579  45.015  62.446  0.00  0.00    +0.000 A 
ATOM     13  C   UNL     1      30.260  43.868  62.098  0.00  0.00    +0.000 A 
ATOM     14  O   UNL     1      29.529  42.671  62.129  0.00  0.00    +0.000 OA
ATOM     15  C   UNL     1      31.576  43.923  61.747  0.00  0.00    +0.000 A 
ATOM     16  C   UNL     1      32.207  45.144  61.746  0.00  0.00    +0.000 A 
ENDBRANCH   9  10
ENDBRANCH   6   8
BRANCH   1  17
ATOM     17  O   UNL     1      35.490  51.711  59.888  0.00  0.00    +0.000 OA
BRANCH  17  20
ATOM     18  C   UNL     1      38.929  52.111  59.177  0.00  0.00    +0.000 C 
ATOM     19  O   UNL     1      37.469  51.978  58.824  0.00  0.00    +0.000 OA
ATOM     20  C   UNL     1      36.847  52.373  60.135  0.00  0.00    +0.000 C 
ATOM     21  C   UNL     1      36.322  53.938  59.714  0.00  0.00    +0.000 C 
ATOM     22  O   UNL     1      35.749  53.679  58.364  0.00  0.00    +0.000 OA
ATOM     23  C   UNL     1      37.827  54.378  59.102  0.00  0.00    +0.000 C 
ATOM     24  O   UNL     1      37.863  55.587  59.976  0.00  0.00    +0.000 OA
ATOM     25  C   UNL     1      38.820  53.502  60.156  0.00  0.00    +0.000 C 
ATOM     26  O   UNL     1      40.054  54.106  59.596  0.00  0.00    +0.000 OA
BRANCH  18  28
ATOM     27  O   UNL     1      39.835  50.221  60.350  0.00  0.00    +0.000 OA
ATOM     28  C   UNL     1      38.801  51.129  60.467  0.00  0.00    +0.000 C 
ENDBRANCH  18  28
ENDBRANCH  17  20
ENDBRANCH   1  17
TORSDOF 5
ENDMDL
MODEL 9
REMARK VINA RESULT:      -6.6      1.679      2.548
REMARK  Name = 
REMARK  5 active torsions:
REMARK  status: ('A' for Active; 'I' for Inactive)
REMARK    1  A    between atoms: C_2  and  C_3
REMARK    2  A    between atoms: C_5  and  O_6
REMARK    3  A    between atoms: O_6  and  C_7
REMARK    4  A    between atoms: C_12  and  C_13
REMARK    5  A    between atoms: C_14  and  C_15
REMARK                            x       y       z     vdW  Elec       q    Type
REMARK                         _______ _______ _______ _____ _____    ______ ____
ROOT
ATOM      1  C   UNL     1      37.432  54.059  58.981  0.00  0.00    +0.000 A 
ATOM      2  C   UNL     1      36.430  53.547  59.763  0.00  0.00    +0.000 A 
ATOM      3  C   UNL     1      35.213  54.145  59.902  0.00  0.00    +0.000 A 
ATOM      4  O   UNL     1      34.198  53.603  60.707  0.00  0.00    +0.000 OA
ATOM      5  C   UNL     1      35.013  55.308  59.217  0.00  0.00    +0.000 A 
ATOM      6  C   UNL     1      35.977  55.882  58.412  0.00  0.00    +0.000 A 
ATOM      7  C   UNL     1      37.174  55.226  58.320  0.00  0.00    +0.000 A 
ENDROOT
BRANCH   6   8
ATOM      8  C   UNL     1      35.669  57.134  57.717  0.00  0.00    +0.000 C 
ATOM      9  C   UNL     1      36.020  57.397  56.503  0.00  0.00    +0.000 C 
BRANCH   9  10
ATOM     10  C   UNL     1      35.768  58.595  55.727  0.00  0.00    +0.000 A 
ATOM     11  C   UNL     1      34.565  58.910  55.147  0.00  0.00    +0.000 A 
ATOM     12  C   UNL     1      34.385  60.082  54.411  0.00  0.00    +0.000 A 
ATOM     13  C   UNL     1      35.449  60.947  54.263  0.00  0.00    +0.000 A 
ATOM     14  O   UNL     1      35.212  62.109  53.512  0.00  0.00    +0.000 OA
ATOM     15  C   UNL     1      36.657  60.663  54.825  0.00  0.00    +0.000 A 
ATOM     16  C   UNL     1      36.792  59.498  55.543  0.00  0.00    +0.000 A 
ENDBRANCH   9  10
ENDBRANCH   6   8
BRANCH   1  17
ATOM     17  O   UNL     1      38.579  53.304  58.977  0.00  0.00    +0.000 OA
BRANCH  17  20
ATOM     18  C   UNL     1      39.737  50.901  61.296  0.00  0.00    +0.000 C 
ATOM     19  O   UNL     1      39.805  51.724  60.034  0.00  0.00    +0.000 OA
ATOM     20  C   UNL     1      38.881  52.850  60.407  0.00  0.00    +0.000 C 
ATOM     21  C   UNL     1      40.047  54.059  60.697  0.00  0.00    +0.000 C 
ATOM     22  O   UNL     1      40.957  53.843  59.539  0.00  0.00    +0.000 OA
ATOM     23  C   UNL     1      40.949  53.072  61.719  0.00  0.00    +0.000 C 
ATOM     24  O   UNL     1      40.905  54.100  62.800  0.00  0.00    +0.000 OA
ATOM     25  C   UNL     1      39.693  52.180  62.422  0.00  0.00    +0.000 C 
ATOM     26  O   UNL     1      40.616  51.504  63.366  0.00  0.00    +0.000 OA
BRANCH  18  28
ATOM     27  O   UNL     1      37.818  49.468  61.122  0.00  0.00    +0.000 OA
ATOM     28  C   UNL     1      38.113  50.810  61.257  0.00  0.00    +0.000 C 
ENDBRANCH  18  28
ENDBRANCH  17  20
ENDBRANCH   1  17
TORSDOF 5
ENDMDL
MODEL 10
REMARK VINA RESULT:      -6.6      3.184     10.358
REMARK  Name = 
REMARK  5 active torsions:
REMARK  status: ('A' for Active; 'I' for Inactive)
REMARK    1  A    between atoms: C_2  and  C_3
REMARK    2  A    between atoms: C_5  and  O_6
REMARK    3  A    between atoms: O_6  and  C_7
REMARK    4  A    between atoms: C_12  and  C_13
REMARK    5  A    between atoms: C_14  and  C_15
REMARK                            x       y       z     vdW  Elec       q    Type
REMARK                         _______ _______ _______ _____ _____    ______ ____
ROOT
ATOM      1  C   UNL     1      34.275  59.180  55.049  0.00  0.00    +0.000 A 
ATOM      2  C   UNL     1      35.095  59.465  53.988  0.00  0.00    +0.000 A 
ATOM      3  C   UNL     1      36.306  58.870  53.801  0.00  0.00    +0.000 A 
ATOM      4  O   UNL     1      37.130  59.174  52.705  0.00  0.00    +0.000 OA
ATOM      5  C   UNL     1      36.695  57.951  54.731  0.00  0.00    +0.000 A 
ATOM      6  C   UNL     1      35.922  57.616  55.825  0.00  0.00    +0.000 A 
ATOM      7  C   UNL     1      34.718  58.253  55.948  0.00  0.00    +0.000 A 
ENDROOT
BRANCH   6   8
ATOM      8  C   UNL     1      36.426  56.617  56.771  0.00  0.00    +0.000 C 
ATOM      9  C   UNL     1      35.920  56.402  57.940  0.00  0.00    +0.000 C 
BRANCH   9  10
ATOM     10  C   UNL     1      36.339  55.447  58.945  0.00  0.00    +0.000 A 
ATOM     11  C   UNL     1      35.642  55.170  60.095  0.00  0.00    +0.000 A 
ATOM     12  C   UNL     1      36.098  54.236  61.027  0.00  0.00    +0.000 A 
ATOM     13  C   UNL     1      37.283  53.575  60.784  0.00  0.00    +0.000 A 
ATOM     14  O   UNL     1      37.695  52.648  61.754  0.00  0.00    +0.000 OA
ATOM     15  C   UNL     1      37.999  53.828  59.652  0.00  0.00    +0.000 A 
ATOM     16  C   UNL     1      37.514  54.755  58.760  0.00  0.00    +0.000 A 
ENDBRANCH   9  10
ENDBRANCH   6   8
BRANCH   1  17
ATOM     17  O   UNL     1      33.100  59.889  55.053  0.00  0.00    +0.000 OA
BRANCH  17  20
ATOM     18  C   UNL     1      32.983  62.909  56.886  0.00  0.00    +0.000 C 
ATOM     19  O   UNL     1      32.606  61.981  55.758  0.00  0.00    +0.000 OA
ATOM     20  C   UNL     1      32.986  60.661  56.369  0.00  0.00    +0.000 C 
ATOM     21  C   UNL     1      31.425  60.084  56.738  0.00  0.00    +0.000 C 
ATOM     22  O   UNL     1      30.700  60.446  55.489  0.00  0.00    +0.000 OA
ATOM     23  C   UNL     1      30.987  61.507  57.524  0.00  0.00    +0.000 C 
ATOM     24  O   UNL     1      30.592  60.745  58.746  0.00  0.00    +0.000 OA
ATOM     25  C   UNL     1      32.486  61.928  58.188  0.00  0.00    +0.000 C 
ATOM     26  O   UNL     1      31.903  63.065  58.942  0.00  0.00    +0.000 OA
BRANCH  18  28
ATOM     27  O   UNL     1      35.301  63.314  56.405  0.00  0.00    +0.000 OA
ATOM     28  C   UNL     1      34.504  62.337  56.968  0.00  0.00    +0.000 C 
ENDBRANCH  18  28
ENDBRANCH  17  20
ENDBRANCH   1  17
TORSDOF 5
ENDMDL
