REMARK  Name = 
REMARK  5 active torsions:
REMARK  status: ('A' for Active; 'I' for Inactive)
REMARK    1  A    between atoms: C_2  and  C_3
REMARK    2  A    between atoms: C_5  and  O_6
REMARK    3  A    between atoms: O_6  and  C_7
REMARK    4  A    between atoms: C_10  and  C_11
REMARK    5  A    between atoms: C_12  and  C_13
REMARK                            x       y       z     vdW  Elec       q    Type
REMARK                         _______ _______ _______ _____ _____    ______ ____
ROOT
ATOM      1  C   UNL     1       1.468  -0.079   1.123  0.00  0.00    +0.000 A 
ATOM      2  C   UNL     1       0.717   0.387   2.186  0.00  0.00    +0.000 A 
ATOM      3  C   UNL     1      -0.658   0.522   2.098  0.00  0.00    +0.000 A 
ATOM      4  C   UNL     1      -1.310   0.186   0.930  0.00  0.00    +0.000 A 
ATOM      5  C   UNL     1      -0.596  -0.272  -0.123  0.00  0.00    +0.000 A 
ATOM      6  C   UNL     1       0.796  -0.402  -0.018  0.00  0.00    +0.000 A 
ENDROOT
BRANCH   4   7
ATOM      7  C   UNL     1      -2.759   0.313   0.796  0.00  0.00    +0.000 C 
ATOM      8  C   UNL     1      -3.377  -0.010  -0.326  0.00  0.00    +0.000 C 
BRANCH   8   9
ATOM      9  C   UNL     1      -4.845   0.119  -0.461  0.00  0.00    +0.000 A 
ATOM     10  C   UNL     1      -5.637   0.580   0.573  0.00  0.00    +0.000 A 
ATOM     11  C   UNL     1      -7.010   0.706   0.462  0.00  0.00    +0.000 A 
ATOM     12  O   UNL     1      -7.796   1.175   1.519  0.00  0.00    +0.000 OA
ATOM     13  C   UNL     1      -7.625   0.356  -0.737  0.00  0.00    +0.000 A 
ATOM     14  C   UNL     1      -6.858  -0.107  -1.784  0.00  0.00    +0.000 A 
ATOM     15  O   UNL     1      -7.479  -0.452  -2.967  0.00  0.00    +0.000 OA
ATOM     16  C   UNL     1      -5.489  -0.217  -1.631  0.00  0.00    +0.000 A 
ENDBRANCH   8   9
ENDBRANCH   4   7
BRANCH   1  17
ATOM     17  O   UNL     1       2.814  -0.184   1.293  0.00  0.00    +0.000 OA
BRANCH  17  20
ATOM     18  C   UNL     1       5.357  -1.509  -0.477  0.00  0.00    +0.000 C 
ATOM     19  O   UNL     1       4.903  -0.714   0.715  0.00  0.00    +0.000 OA
ATOM     20  C   UNL     1       3.508  -0.654   0.007  0.00  0.00    +0.000 C 
ATOM     21  C   UNL     1       3.935   0.963  -0.514  0.00  0.00    +0.000 C 
ATOM     22  O   UNL     1       2.597   1.234  -1.079  0.00  0.00    +0.000 OA
ATOM     23  C   UNL     1       4.512   0.332  -1.981  0.00  0.00    +0.000 C 
ATOM     24  O   UNL     1       5.102   1.638  -2.419  0.00  0.00    +0.000 OA
ATOM     25  C   UNL     1       6.005  -0.255  -1.439  0.00  0.00    +0.000 C 
ATOM     26  O   UNL     1       6.353   0.755  -0.422  0.00  0.00    +0.000 OA
BRANCH  18  28
ATOM     27  O   UNL     1       6.553  -2.551   1.340  0.00  0.00    +0.000 OA
ATOM     28  C   UNL     1       6.819  -1.857   0.172  0.00  0.00    +0.000 C 
ENDBRANCH  18  28
ENDBRANCH  17  20
ENDBRANCH   1  17
TORSDOF 5
