MODEL 1
REMARK VINA RESULT:      -6.7      0.000      0.000
REMARK  Name = 
REMARK  5 active torsions:
REMARK  status: ('A' for Active; 'I' for Inactive)
REMARK    1  A    between atoms: O_2  and  C_3
REMARK    2  A    between atoms: C_5  and  C_6
REMARK    3  A    between atoms: C_7  and  C_8
REMARK    4  A    between atoms: C_7  and  C_10
REMARK    5  A    between atoms: C_12  and  O_13
REMARK                            x       y       z     vdW  Elec       q    Type
REMARK                         _______ _______ _______ _____ _____    ______ ____
ROOT
ATOM      1  C   UNL     1      36.085  56.864  56.984  0.00  0.00    +0.000 C 
ATOM      2  C   UNL     1      35.672  56.657  58.225  0.00  0.00    +0.000 C 
ENDROOT
BRANCH   1   5
ATOM      3  C   UNL     1      34.451  59.665  55.112  0.00  0.00    +0.000 A 
ATOM      4  C   UNL     1      34.685  58.473  55.729  0.00  0.00    +0.000 A 
ATOM      5  C   UNL     1      35.887  58.155  56.338  0.00  0.00    +0.000 A 
ATOM      6  C   UNL     1      36.865  59.134  56.286  0.00  0.00    +0.000 A 
ATOM      7  C   UNL     1      36.649  60.347  55.666  0.00  0.00    +0.000 A 
ATOM      8  C   UNL     1      35.446  60.618  55.078  0.00  0.00    +0.000 A 
ATOM      9  O   UNL     1      35.481  61.900  54.526  0.00  0.00    +0.000 OA
ATOM     10  C   UNL     1      36.846  62.310  54.487  0.00  0.00    +0.000 C 
ATOM     11  O   UNL     1      37.445  61.487  55.473  0.00  0.00    +0.000 OA
BRANCH   3  13
ATOM     12  C   UNL     1      32.221  60.644  55.255  0.00  0.00    +0.000 C 
ATOM     13  O   UNL     1      33.244  59.972  54.506  0.00  0.00    +0.000 OA
ENDBRANCH   3  13
ENDBRANCH   1   5
BRANCH   2  14
ATOM     14  C   UNL     1      35.863  55.367  58.893  0.00  0.00    +0.000 A 
ATOM     15  C   UNL     1      36.876  54.541  58.454  0.00  0.00    +0.000 A 
ATOM     16  C   UNL     1      37.117  53.302  59.041  0.00  0.00    +0.000 A 
ATOM     17  C   UNL     1      36.325  52.883  60.088  0.00  0.00    +0.000 A 
ATOM     18  C   UNL     1      35.303  53.711  60.534  0.00  0.00    +0.000 A 
ATOM     19  C   UNL     1      35.080  54.949  59.930  0.00  0.00    +0.000 A 
ATOM     20  O   UNL     1      34.691  53.033  61.579  0.00  0.00    +0.000 OA
ATOM     21  C   UNL     1      35.192  51.723  61.708  0.00  0.00    +0.000 C 
ATOM     22  O   UNL     1      36.319  51.721  60.864  0.00  0.00    +0.000 OA
BRANCH  16  23
ATOM     23  O   UNL     1      38.132  52.456  58.613  0.00  0.00    +0.000 OA
ATOM     24  C   UNL     1      39.382  53.063  58.283  0.00  0.00    +0.000 C 
ENDBRANCH  16  23
ENDBRANCH   2  14
BRANCH   2  25
ATOM     25  C   UNL     1      35.028  57.750  58.895  0.00  0.00    +0.000 C 
ATOM     26  N   UNL     1      34.488  58.629  59.441  0.00  0.00    +0.000 NA
ENDBRANCH   2  25
TORSDOF 5
ENDMDL
MODEL 2
REMARK VINA RESULT:      -6.6      1.458      2.332
REMARK  Name = 
REMARK  5 active torsions:
REMARK  status: ('A' for Active; 'I' for Inactive)
REMARK    1  A    between atoms: O_2  and  C_3
REMARK    2  A    between atoms: C_5  and  C_6
REMARK    3  A    between atoms: C_7  and  C_8
REMARK    4  A    between atoms: C_7  and  C_10
REMARK    5  A    between atoms: C_12  and  O_13
REMARK                            x       y       z     vdW  Elec       q    Type
REMARK                         _______ _______ _______ _____ _____    ______ ____
ROOT
ATOM      1  C   UNL     1      36.091  56.591  56.728  0.00  0.00    +0.000 C 
ATOM      2  C   UNL     1      36.392  56.228  57.965  0.00  0.00    +0.000 C 
ENDROOT
BRANCH   1   5
ATOM      3  C   UNL     1      34.313  59.834  56.144  0.00  0.00    +0.000 A 
ATOM      4  C   UNL     1      34.584  58.533  56.445  0.00  0.00    +0.000 A 
ATOM      5  C   UNL     1      35.856  57.990  56.397  0.00  0.00    +0.000 A 
ATOM      6  C   UNL     1      36.867  58.859  56.019  0.00  0.00    +0.000 A 
ATOM      7  C   UNL     1      36.614  60.179  55.711  0.00  0.00    +0.000 A 
ATOM      8  C   UNL     1      35.342  60.673  55.772  0.00  0.00    +0.000 A 
ATOM      9  O   UNL     1      35.352  62.023  55.417  0.00  0.00    +0.000 OA
ATOM     10  C   UNL     1      36.613  62.294  54.809  0.00  0.00    +0.000 C 
ATOM     11  O   UNL     1      37.429  61.250  55.311  0.00  0.00    +0.000 OA
BRANCH   3  13
ATOM     12  C   UNL     1      32.235  60.415  55.005  0.00  0.00    +0.000 C 
ATOM     13  O   UNL     1      33.035  60.365  56.195  0.00  0.00    +0.000 OA
ENDBRANCH   3  13
ENDBRANCH   1   5
BRANCH   2  14
ATOM     14  C   UNL     1      36.633  54.826  58.317  0.00  0.00    +0.000 A 
ATOM     15  C   UNL     1      35.557  53.965  58.367  0.00  0.00    +0.000 A 
ATOM     16  C   UNL     1      35.709  52.621  58.692  0.00  0.00    +0.000 A 
ATOM     17  C   UNL     1      36.966  52.131  58.975  0.00  0.00    +0.000 A 
ATOM     18  C   UNL     1      38.053  52.994  58.927  0.00  0.00    +0.000 A 
ATOM     19  C   UNL     1      37.876  54.339  58.598  0.00  0.00    +0.000 A 
ATOM     20  O   UNL     1      39.164  52.228  59.252  0.00  0.00    +0.000 OA
ATOM     21  C   UNL     1      38.795  50.933  59.664  0.00  0.00    +0.000 C 
ATOM     22  O   UNL     1      37.430  50.860  59.326  0.00  0.00    +0.000 OA
BRANCH  16  23
ATOM     23  O   UNL     1      34.639  51.737  58.747  0.00  0.00    +0.000 OA
ATOM     24  C   UNL     1      33.330  52.304  58.670  0.00  0.00    +0.000 C 
ENDBRANCH  16  23
ENDBRANCH   2  14
BRANCH   2  25
ATOM     25  C   UNL     1      36.476  57.265  58.953  0.00  0.00    +0.000 C 
ATOM     26  N   UNL     1      36.550  58.123  59.742  0.00  0.00    +0.000 NA
ENDBRANCH   2  25
TORSDOF 5
ENDMDL
MODEL 3
REMARK VINA RESULT:      -6.5      1.960      8.546
REMARK  Name = 
REMARK  5 active torsions:
REMARK  status: ('A' for Active; 'I' for Inactive)
REMARK    1  A    between atoms: O_2  and  C_3
REMARK    2  A    between atoms: C_5  and  C_6
REMARK    3  A    between atoms: C_7  and  C_8
REMARK    4  A    between atoms: C_7  and  C_10
REMARK    5  A    between atoms: C_12  and  O_13
REMARK                            x       y       z     vdW  Elec       q    Type
REMARK                         _______ _______ _______ _____ _____    ______ ____
ROOT
ATOM      1  C   UNL     1      36.056  55.427  58.358  0.00  0.00    +0.000 C 
ATOM      2  C   UNL     1      35.624  56.676  58.444  0.00  0.00    +0.000 C 
ENDROOT
BRANCH   1   5
ATOM      3  C   UNL     1      37.954  53.884  61.192  0.00  0.00    +0.000 A 
ATOM      4  C   UNL     1      37.630  54.592  60.074  0.00  0.00    +0.000 A 
ATOM      5  C   UNL     1      36.348  54.654  59.558  0.00  0.00    +0.000 A 
ATOM      6  C   UNL     1      35.384  53.941  60.253  0.00  0.00    +0.000 A 
ATOM      7  C   UNL     1      35.691  53.218  61.386  0.00  0.00    +0.000 A 
ATOM      8  C   UNL     1      36.972  53.185  61.861  0.00  0.00    +0.000 A 
ATOM      9  O   UNL     1      37.018  52.391  63.008  0.00  0.00    +0.000 OA
ATOM     10  C   UNL     1      35.802  51.650  63.064  0.00  0.00    +0.000 C 
ATOM     11  O   UNL     1      34.929  52.426  62.261  0.00  0.00    +0.000 OA
BRANCH   3  13
ATOM     12  C   UNL     1      40.359  54.086  60.837  0.00  0.00    +0.000 C 
ATOM     13  O   UNL     1      39.242  53.829  61.699  0.00  0.00    +0.000 OA
ENDBRANCH   3  13
ENDBRANCH   1   5
BRANCH   2  14
ATOM     14  C   UNL     1      35.325  57.469  57.249  0.00  0.00    +0.000 A 
ATOM     15  C   UNL     1      34.250  58.332  57.283  0.00  0.00    +0.000 A 
ATOM     16  C   UNL     1      33.906  59.117  56.187  0.00  0.00    +0.000 A 
ATOM     17  C   UNL     1      34.656  59.035  55.033  0.00  0.00    +0.000 A 
ATOM     18  C   UNL     1      35.740  58.168  54.994  0.00  0.00    +0.000 A 
ATOM     19  C   UNL     1      36.065  57.389  56.106  0.00  0.00    +0.000 A 
ATOM     20  O   UNL     1      36.290  58.301  53.727  0.00  0.00    +0.000 OA
ATOM     21  C   UNL     1      35.489  59.113  52.900  0.00  0.00    +0.000 C 
ATOM     22  O   UNL     1      34.564  59.680  53.797  0.00  0.00    +0.000 OA
BRANCH  16  23
ATOM     23  O   UNL     1      32.827  59.992  56.201  0.00  0.00    +0.000 OA
ATOM     24  C   UNL     1      32.207  60.231  57.465  0.00  0.00    +0.000 C 
ENDBRANCH  16  23
ENDBRANCH   2  14
BRANCH   2  25
ATOM     25  C   UNL     1      35.460  57.225  59.759  0.00  0.00    +0.000 C 
ATOM     26  N   UNL     1      35.334  57.656  60.837  0.00  0.00    +0.000 NA
ENDBRANCH   2  25
TORSDOF 5
ENDMDL
MODEL 4
REMARK VINA RESULT:      -6.5      1.530      3.092
REMARK  Name = 
REMARK  5 active torsions:
REMARK  status: ('A' for Active; 'I' for Inactive)
REMARK    1  A    between atoms: O_2  and  C_3
REMARK    2  A    between atoms: C_5  and  C_6
REMARK    3  A    between atoms: C_7  and  C_8
REMARK    4  A    between atoms: C_7  and  C_10
REMARK    5  A    between atoms: C_12  and  O_13
REMARK                            x       y       z     vdW  Elec       q    Type
REMARK                         _______ _______ _______ _____ _____    ______ ____
ROOT
ATOM      1  C   UNL     1      36.492  56.575  56.902  0.00  0.00    +0.000 C 
ATOM      2  C   UNL     1      36.113  55.973  58.020  0.00  0.00    +0.000 C 
ENDROOT
BRANCH   1   5
ATOM      3  C   UNL     1      36.314  60.311  56.733  0.00  0.00    +0.000 A 
ATOM      4  C   UNL     1      36.712  59.038  57.007  0.00  0.00    +0.000 A 
ATOM      5  C   UNL     1      36.022  57.916  56.581  0.00  0.00    +0.000 A 
ATOM      6  C   UNL     1      34.876  58.160  55.842  0.00  0.00    +0.000 A 
ATOM      7  C   UNL     1      34.455  59.441  55.553  0.00  0.00    +0.000 A 
ATOM      8  C   UNL     1      35.168  60.520  55.995  0.00  0.00    +0.000 A 
ATOM      9  O   UNL     1      34.539  61.693  55.574  0.00  0.00    +0.000 OA
ATOM     10  C   UNL     1      33.229  61.341  55.136  0.00  0.00    +0.000 C 
ATOM     11  O   UNL     1      33.361  59.960  54.843  0.00  0.00    +0.000 OA
BRANCH   3  13
ATOM     12  C   UNL     1      37.960  62.057  56.292  0.00  0.00    +0.000 C 
ATOM     13  O   UNL     1      37.013  61.426  57.165  0.00  0.00    +0.000 OA
ENDBRANCH   3  13
ENDBRANCH   1   5
BRANCH   2  14
ATOM     14  C   UNL     1      36.575  54.626  58.361  0.00  0.00    +0.000 A 
ATOM     15  C   UNL     1      35.674  53.584  58.299  0.00  0.00    +0.000 A 
ATOM     16  C   UNL     1      36.042  52.278  58.607  0.00  0.00    +0.000 A 
ATOM     17  C   UNL     1      37.340  52.011  58.987  0.00  0.00    +0.000 A 
ATOM     18  C   UNL     1      38.251  53.057  59.051  0.00  0.00    +0.000 A 
ATOM     19  C   UNL     1      37.860  54.360  58.737  0.00  0.00    +0.000 A 
ATOM     20  O   UNL     1      39.453  52.492  59.454  0.00  0.00    +0.000 OA
ATOM     21  C   UNL     1      39.294  51.137  59.805  0.00  0.00    +0.000 C 
ATOM     22  O   UNL     1      37.997  50.833  59.349  0.00  0.00    +0.000 OA
BRANCH  16  23
ATOM     23  O   UNL     1      35.149  51.215  58.550  0.00  0.00    +0.000 OA
ATOM     24  C   UNL     1      34.599  50.768  59.790  0.00  0.00    +0.000 C 
ENDBRANCH  16  23
ENDBRANCH   2  14
BRANCH   2  25
ATOM     25  C   UNL     1      35.228  56.696  58.888  0.00  0.00    +0.000 C 
ATOM     26  N   UNL     1      34.524  57.289  59.606  0.00  0.00    +0.000 NA
ENDBRANCH   2  25
TORSDOF 5
ENDMDL
MODEL 5
REMARK VINA RESULT:      -6.5      1.774      8.081
REMARK  Name = 
REMARK  5 active torsions:
REMARK  status: ('A' for Active; 'I' for Inactive)
REMARK    1  A    between atoms: O_2  and  C_3
REMARK    2  A    between atoms: C_5  and  C_6
REMARK    3  A    between atoms: C_7  and  C_8
REMARK    4  A    between atoms: C_7  and  C_10
REMARK    5  A    between atoms: C_12  and  O_13
REMARK                            x       y       z     vdW  Elec       q    Type
REMARK                         _______ _______ _______ _____ _____    ______ ____
ROOT
ATOM      1  C   UNL     1      36.433  55.826  57.670  0.00  0.00    +0.000 C 
ATOM      2  C   UNL     1      35.495  56.698  58.009  0.00  0.00    +0.000 C 
ENDROOT
BRANCH   1   5
ATOM      3  C   UNL     1      36.512  52.426  59.236  0.00  0.00    +0.000 A 
ATOM      4  C   UNL     1      36.211  53.481  58.428  0.00  0.00    +0.000 A 
ATOM      5  C   UNL     1      36.791  54.731  58.562  0.00  0.00    +0.000 A 
ATOM      6  C   UNL     1      37.717  54.858  59.585  0.00  0.00    +0.000 A 
ATOM      7  C   UNL     1      38.035  53.803  60.413  0.00  0.00    +0.000 A 
ATOM      8  C   UNL     1      37.437  52.586  60.245  0.00  0.00    +0.000 A 
ATOM      9  O   UNL     1      37.927  51.695  61.202  0.00  0.00    +0.000 OA
ATOM     10  C   UNL     1      38.605  52.464  62.193  0.00  0.00    +0.000 C 
ATOM     11  O   UNL     1      38.914  53.660  61.499  0.00  0.00    +0.000 OA
BRANCH   3  13
ATOM     12  C   UNL     1      34.768  50.843  59.872  0.00  0.00    +0.000 C 
ATOM     13  O   UNL     1      35.924  51.180  59.093  0.00  0.00    +0.000 OA
ENDBRANCH   3  13
ENDBRANCH   1   5
BRANCH   2  14
ATOM     14  C   UNL     1      35.121  57.805  57.126  0.00  0.00    +0.000 A 
ATOM     15  C   UNL     1      36.013  58.202  56.152  0.00  0.00    +0.000 A 
ATOM     16  C   UNL     1      35.725  59.245  55.276  0.00  0.00    +0.000 A 
ATOM     17  C   UNL     1      34.519  59.904  55.381  0.00  0.00    +0.000 A 
ATOM     18  C   UNL     1      33.617  59.508  56.360  0.00  0.00    +0.000 A 
ATOM     19  C   UNL     1      33.927  58.459  57.227  0.00  0.00    +0.000 A 
ATOM     20  O   UNL     1      32.514  60.339  56.222  0.00  0.00    +0.000 OA
ATOM     21  C   UNL     1      32.754  61.362  55.285  0.00  0.00    +0.000 C 
ATOM     22  O   UNL     1      33.954  60.963  54.666  0.00  0.00    +0.000 OA
BRANCH  16  23
ATOM     23  O   UNL     1      36.610  59.659  54.289  0.00  0.00    +0.000 OA
ATOM     24  C   UNL     1      36.669  58.868  53.102  0.00  0.00    +0.000 C 
ENDBRANCH  16  23
ENDBRANCH   2  14
BRANCH   2  25
ATOM     25  C   UNL     1      34.856  56.514  59.279  0.00  0.00    +0.000 C 
ATOM     26  N   UNL     1      34.352  56.369  60.323  0.00  0.00    +0.000 NA
ENDBRANCH   2  25
TORSDOF 5
ENDMDL
MODEL 6
REMARK VINA RESULT:      -6.4      0.714      2.182
REMARK  Name = 
REMARK  5 active torsions:
REMARK  status: ('A' for Active; 'I' for Inactive)
REMARK    1  A    between atoms: O_2  and  C_3
REMARK    2  A    between atoms: C_5  and  C_6
REMARK    3  A    between atoms: C_7  and  C_8
REMARK    4  A    between atoms: C_7  and  C_10
REMARK    5  A    between atoms: C_12  and  O_13
REMARK                            x       y       z     vdW  Elec       q    Type
REMARK                         _______ _______ _______ _____ _____    ______ ____
ROOT
ATOM      1  C   UNL     1      36.063  56.843  57.179  0.00  0.00    +0.000 C 
ATOM      2  C   UNL     1      35.646  56.585  58.409  0.00  0.00    +0.000 C 
ENDROOT
BRANCH   1   5
ATOM      3  C   UNL     1      36.758  60.325  55.992  0.00  0.00    +0.000 A 
ATOM      4  C   UNL     1      36.893  59.084  56.537  0.00  0.00    +0.000 A 
ATOM      5  C   UNL     1      35.865  58.158  56.584  0.00  0.00    +0.000 A 
ATOM      6  C   UNL     1      34.661  58.567  56.034  0.00  0.00    +0.000 A 
ATOM      7  C   UNL     1      34.504  59.819  55.477  0.00  0.00    +0.000 A 
ATOM      8  C   UNL     1      35.547  60.702  55.453  0.00  0.00    +0.000 A 
ATOM      9  O   UNL     1      35.134  61.887  54.842  0.00  0.00    +0.000 OA
ATOM     10  C   UNL     1      33.711  61.859  54.775  0.00  0.00    +0.000 C 
ATOM     11  O   UNL     1      33.423  60.474  54.866  0.00  0.00    +0.000 OA
BRANCH   3  13
ATOM     12  C   UNL     1      38.989  61.005  56.712  0.00  0.00    +0.000 C 
ATOM     13  O   UNL     1      37.794  61.243  55.952  0.00  0.00    +0.000 OA
ENDBRANCH   3  13
ENDBRANCH   1   5
BRANCH   2  14
ATOM     14  C   UNL     1      35.836  55.270  59.025  0.00  0.00    +0.000 A 
ATOM     15  C   UNL     1      36.823  54.445  58.528  0.00  0.00    +0.000 A 
ATOM     16  C   UNL     1      37.062  53.183  59.064  0.00  0.00    +0.000 A 
ATOM     17  C   UNL     1      36.294  52.739  60.119  0.00  0.00    +0.000 A 
ATOM     18  C   UNL     1      35.299  53.566  60.624  0.00  0.00    +0.000 A 
ATOM     19  C   UNL     1      35.077  54.828  60.070  0.00  0.00    +0.000 A 
ATOM     20  O   UNL     1      34.707  52.861  61.662  0.00  0.00    +0.000 OA
ATOM     21  C   UNL     1      35.191  51.540  61.730  0.00  0.00    +0.000 C 
ATOM     22  O   UNL     1      36.293  51.551  60.854  0.00  0.00    +0.000 OA
BRANCH  16  23
ATOM     23  O   UNL     1      38.050  52.338  58.577  0.00  0.00    +0.000 OA
ATOM     24  C   UNL     1      39.377  52.863  58.519  0.00  0.00    +0.000 C 
ENDBRANCH  16  23
ENDBRANCH   2  14
BRANCH   2  25
ATOM     25  C   UNL     1      34.999  57.651  59.120  0.00  0.00    +0.000 C 
ATOM     26  N   UNL     1      34.468  58.505  59.713  0.00  0.00    +0.000 NA
ENDBRANCH   2  25
TORSDOF 5
ENDMDL
MODEL 7
REMARK VINA RESULT:      -6.4      1.735      8.296
REMARK  Name = 
REMARK  5 active torsions:
REMARK  status: ('A' for Active; 'I' for Inactive)
REMARK    1  A    between atoms: O_2  and  C_3
REMARK    2  A    between atoms: C_5  and  C_6
REMARK    3  A    between atoms: C_7  and  C_8
REMARK    4  A    between atoms: C_7  and  C_10
REMARK    5  A    between atoms: C_12  and  O_13
REMARK                            x       y       z     vdW  Elec       q    Type
REMARK                         _______ _______ _______ _____ _____    ______ ____
ROOT
ATOM      1  C   UNL     1      36.378  55.852  57.690  0.00  0.00    +0.000 C 
ATOM      2  C   UNL     1      35.471  56.763  58.011  0.00  0.00    +0.000 C 
ENDROOT
BRANCH   1   5
ATOM      3  C   UNL     1      37.913  53.862  60.465  0.00  0.00    +0.000 A 
ATOM      4  C   UNL     1      37.604  54.869  59.601  0.00  0.00    +0.000 A 
ATOM      5  C   UNL     1      36.670  54.742  58.587  0.00  0.00    +0.000 A 
ATOM      6  C   UNL     1      36.049  53.508  58.492  0.00  0.00    +0.000 A 
ATOM      7  C   UNL     1      36.348  52.475  59.356  0.00  0.00    +0.000 A 
ATOM      8  C   UNL     1      37.277  52.645  60.343  0.00  0.00    +0.000 A 
ATOM      9  O   UNL     1      37.394  51.462  61.075  0.00  0.00    +0.000 OA
ATOM     10  C   UNL     1      36.760  50.431  60.323  0.00  0.00    +0.000 C 
ATOM     11  O   UNL     1      35.880  51.157  59.482  0.00  0.00    +0.000 OA
BRANCH   3  13
ATOM     12  C   UNL     1      40.142  54.550  61.179  0.00  0.00    +0.000 C 
ATOM     13  O   UNL     1      38.849  54.001  61.475  0.00  0.00    +0.000 OA
ENDBRANCH   3  13
ENDBRANCH   1   5
BRANCH   2  14
ATOM     14  C   UNL     1      35.162  57.886  57.121  0.00  0.00    +0.000 A 
ATOM     15  C   UNL     1      36.108  58.274  56.196  0.00  0.00    +0.000 A 
ATOM     16  C   UNL     1      35.884  59.330  55.318  0.00  0.00    +0.000 A 
ATOM     17  C   UNL     1      34.687  60.011  55.370  0.00  0.00    +0.000 A 
ATOM     18  C   UNL     1      33.731  59.625  56.300  0.00  0.00    +0.000 A 
ATOM     19  C   UNL     1      33.978  58.562  57.171  0.00  0.00    +0.000 A 
ATOM     20  O   UNL     1      32.653  60.479  56.117  0.00  0.00    +0.000 OA
ATOM     21  C   UNL     1      32.958  61.506  55.202  0.00  0.00    +0.000 C 
ATOM     22  O   UNL     1      34.179  61.088  54.639  0.00  0.00    +0.000 OA
BRANCH  16  23
ATOM     23  O   UNL     1      36.824  59.736  54.379  0.00  0.00    +0.000 OA
ATOM     24  C   UNL     1      36.846  59.027  53.140  0.00  0.00    +0.000 C 
ENDBRANCH  16  23
ENDBRANCH   2  14
BRANCH   2  25
ATOM     25  C   UNL     1      34.800  56.607  59.269  0.00  0.00    +0.000 C 
ATOM     26  N   UNL     1      34.246  56.499  60.291  0.00  0.00    +0.000 NA
ENDBRANCH   2  25
TORSDOF 5
ENDMDL
MODEL 8
REMARK VINA RESULT:      -6.3      2.056      8.342
REMARK  Name = 
REMARK  5 active torsions:
REMARK  status: ('A' for Active; 'I' for Inactive)
REMARK    1  A    between atoms: O_2  and  C_3
REMARK    2  A    between atoms: C_5  and  C_6
REMARK    3  A    between atoms: C_7  and  C_8
REMARK    4  A    between atoms: C_7  and  C_10
REMARK    5  A    between atoms: C_12  and  O_13
REMARK                            x       y       z     vdW  Elec       q    Type
REMARK                         _______ _______ _______ _____ _____    ______ ____
ROOT
ATOM      1  C   UNL     1      36.322  55.584  58.576  0.00  0.00    +0.000 C 
ATOM      2  C   UNL     1      35.737  56.771  58.645  0.00  0.00    +0.000 C 
ENDROOT
BRANCH   1   5
ATOM      3  C   UNL     1      35.996  53.248  61.483  0.00  0.00    +0.000 A 
ATOM      4  C   UNL     1      35.739  53.964  60.353  0.00  0.00    +0.000 A 
ATOM      5  C   UNL     1      36.648  54.841  59.786  0.00  0.00    +0.000 A 
ATOM      6  C   UNL     1      37.863  54.956  60.441  0.00  0.00    +0.000 A 
ATOM      7  C   UNL     1      38.143  54.240  61.586  0.00  0.00    +0.000 A 
ATOM      8  C   UNL     1      37.216  53.385  62.111  0.00  0.00    +0.000 A 
ATOM      9  O   UNL     1      37.738  52.786  63.259  0.00  0.00    +0.000 OA
ATOM     10  C   UNL     1      38.894  53.529  63.639  0.00  0.00    +0.000 C 
ATOM     11  O   UNL     1      39.264  54.167  62.428  0.00  0.00    +0.000 OA
BRANCH   3  13
ATOM     12  C   UNL     1      35.033  51.009  61.599  0.00  0.00    +0.000 C 
ATOM     13  O   UNL     1      35.079  52.373  62.041  0.00  0.00    +0.000 OA
ENDBRANCH   3  13
ENDBRANCH   1   5
BRANCH   2  14
ATOM     14  C   UNL     1      35.401  57.533  57.440  0.00  0.00    +0.000 A 
ATOM     15  C   UNL     1      34.412  58.490  57.520  0.00  0.00    +0.000 A 
ATOM     16  C   UNL     1      34.041  59.254  56.417  0.00  0.00    +0.000 A 
ATOM     17  C   UNL     1      34.674  59.051  55.209  0.00  0.00    +0.000 A 
ATOM     18  C   UNL     1      35.670  58.088  55.123  0.00  0.00    +0.000 A 
ATOM     19  C   UNL     1      36.026  57.334  56.243  0.00  0.00    +0.000 A 
ATOM     20  O   UNL     1      36.114  58.113  53.808  0.00  0.00    +0.000 OA
ATOM     21  C   UNL     1      35.315  58.956  53.011  0.00  0.00    +0.000 C 
ATOM     22  O   UNL     1      34.527  59.645  53.953  0.00  0.00    +0.000 OA
BRANCH  16  23
ATOM     23  O   UNL     1      33.048  60.223  56.477  0.00  0.00    +0.000 OA
ATOM     24  C   UNL     1      31.789  59.824  57.021  0.00  0.00    +0.000 C 
ENDBRANCH  16  23
ENDBRANCH   2  14
BRANCH   2  25
ATOM     25  C   UNL     1      35.443  57.283  59.953  0.00  0.00    +0.000 C 
ATOM     26  N   UNL     1      35.210  57.718  61.011  0.00  0.00    +0.000 NA
ENDBRANCH   2  25
TORSDOF 5
ENDMDL
MODEL 9
REMARK VINA RESULT:      -6.2      2.420      8.382
REMARK  Name = 
REMARK  5 active torsions:
REMARK  status: ('A' for Active; 'I' for Inactive)
REMARK    1  A    between atoms: O_2  and  C_3
REMARK    2  A    between atoms: C_5  and  C_6
REMARK    3  A    between atoms: C_7  and  C_8
REMARK    4  A    between atoms: C_7  and  C_10
REMARK    5  A    between atoms: C_12  and  O_13
REMARK                            x       y       z     vdW  Elec       q    Type
REMARK                         _______ _______ _______ _____ _____    ______ ____
ROOT
ATOM      1  C   UNL     1      37.223  55.777  59.279  0.00  0.00    +0.000 C 
ATOM      2  C   UNL     1      36.247  55.555  58.412  0.00  0.00    +0.000 C 
ENDROOT
BRANCH   1   5
ATOM      3  C   UNL     1      39.515  52.954  60.170  0.00  0.00    +0.000 A 
ATOM      4  C   UNL     1      38.916  53.988  59.516  0.00  0.00    +0.000 A 
ATOM      5  C   UNL     1      37.827  54.678  60.020  0.00  0.00    +0.000 A 
ATOM      6  C   UNL     1      37.366  54.254  61.256  0.00  0.00    +0.000 A 
ATOM      7  C   UNL     1      37.958  53.210  61.934  0.00  0.00    +0.000 A 
ATOM      8  C   UNL     1      39.031  52.556  61.398  0.00  0.00    +0.000 A 
ATOM      9  O   UNL     1      39.443  51.548  62.273  0.00  0.00    +0.000 OA
ATOM     10  C   UNL     1      38.400  51.360  63.226  0.00  0.00    +0.000 C 
ATOM     11  O   UNL     1      37.701  52.592  63.169  0.00  0.00    +0.000 OA
BRANCH   3  13
ATOM     12  C   UNL     1      41.661  52.995  59.009  0.00  0.00    +0.000 C 
ATOM     13  O   UNL     1      40.604  52.270  59.655  0.00  0.00    +0.000 OA
ENDBRANCH   3  13
ENDBRANCH   1   5
BRANCH   2  14
ATOM     14  C   UNL     1      35.627  56.646  57.657  0.00  0.00    +0.000 A 
ATOM     15  C   UNL     1      36.121  56.944  56.404  0.00  0.00    +0.000 A 
ATOM     16  C   UNL     1      35.582  57.967  55.629  0.00  0.00    +0.000 A 
ATOM     17  C   UNL     1      34.527  58.705  56.120  0.00  0.00    +0.000 A 
ATOM     18  C   UNL     1      34.026  58.409  57.381  0.00  0.00    +0.000 A 
ATOM     19  C   UNL     1      34.583  57.379  58.141  0.00  0.00    +0.000 A 
ATOM     20  O   UNL     1      32.987  59.303  57.599  0.00  0.00    +0.000 OA
ATOM     21  C   UNL     1      32.915  60.269  56.577  0.00  0.00    +0.000 C 
ATOM     22  O   UNL     1      33.789  59.768  55.593  0.00  0.00    +0.000 OA
BRANCH  16  23
ATOM     23  O   UNL     1      36.064  58.282  54.365  0.00  0.00    +0.000 OA
ATOM     24  C   UNL     1      37.478  58.437  54.235  0.00  0.00    +0.000 C 
ENDBRANCH  16  23
ENDBRANCH   2  14
BRANCH   2  25
ATOM     25  C   UNL     1      35.818  54.197  58.240  0.00  0.00    +0.000 C 
ATOM     26  N   UNL     1      35.465  53.095  58.080  0.00  0.00    +0.000 NA
ENDBRANCH   2  25
TORSDOF 5
ENDMDL
MODEL 10
REMARK VINA RESULT:      -6.1      2.459      8.342
REMARK  Name = 
REMARK  5 active torsions:
REMARK  status: ('A' for Active; 'I' for Inactive)
REMARK    1  A    between atoms: O_2  and  C_3
REMARK    2  A    between atoms: C_5  and  C_6
REMARK    3  A    between atoms: C_7  and  C_8
REMARK    4  A    between atoms: C_7  and  C_10
REMARK    5  A    between atoms: C_12  and  O_13
REMARK                            x       y       z     vdW  Elec       q    Type
REMARK                         _______ _______ _______ _____ _____    ______ ____
ROOT
ATOM      1  C   UNL     1      37.273  55.620  59.423  0.00  0.00    +0.000 C 
ATOM      2  C   UNL     1      36.365  55.402  58.483  0.00  0.00    +0.000 C 
ENDROOT
BRANCH   1   5
ATOM      3  C   UNL     1      37.635  53.012  62.084  0.00  0.00    +0.000 A 
ATOM      4  C   UNL     1      37.164  54.039  61.322  0.00  0.00    +0.000 A 
ATOM      5  C   UNL     1      37.821  54.518  60.202  0.00  0.00    +0.000 A 
ATOM      6  C   UNL     1      39.012  53.886  59.886  0.00  0.00    +0.000 A 
ATOM      7  C   UNL     1      39.506  52.845  60.644  0.00  0.00    +0.000 A 
ATOM      8  C   UNL     1      38.824  52.403  61.742  0.00  0.00    +0.000 A 
ATOM      9  O   UNL     1      39.528  51.350  62.330  0.00  0.00    +0.000 OA
ATOM     10  C   UNL     1      40.840  51.351  61.772  0.00  0.00    +0.000 C 
ATOM     11  O   UNL     1      40.657  52.046  60.551  0.00  0.00    +0.000 OA
BRANCH   3  13
ATOM     12  C   UNL     1      35.842  51.666  63.046  0.00  0.00    +0.000 C 
ATOM     13  O   UNL     1      36.969  52.540  63.203  0.00  0.00    +0.000 OA
ENDBRANCH   3  13
ENDBRANCH   1   5
BRANCH   2  14
ATOM     14  C   UNL     1      35.803  56.496  57.689  0.00  0.00    +0.000 A 
ATOM     15  C   UNL     1      36.291  56.705  56.416  0.00  0.00    +0.000 A 
ATOM     16  C   UNL     1      35.804  57.725  55.603  0.00  0.00    +0.000 A 
ATOM     17  C   UNL     1      34.809  58.552  56.077  0.00  0.00    +0.000 A 
ATOM     18  C   UNL     1      34.314  58.346  57.358  0.00  0.00    +0.000 A 
ATOM     19  C   UNL     1      34.818  57.317  58.156  0.00  0.00    +0.000 A 
ATOM     20  O   UNL     1      33.339  59.314  57.552  0.00  0.00    +0.000 OA
ATOM     21  C   UNL     1      33.310  60.236  56.487  0.00  0.00    +0.000 C 
ATOM     22  O   UNL     1      34.131  59.636  55.513  0.00  0.00    +0.000 OA
BRANCH  16  23
ATOM     23  O   UNL     1      36.282  57.951  54.319  0.00  0.00    +0.000 OA
ATOM     24  C   UNL     1      37.556  58.588  54.207  0.00  0.00    +0.000 C 
ENDBRANCH  16  23
ENDBRANCH   2  14
BRANCH   2  25
ATOM     25  C   UNL     1      35.953  54.044  58.272  0.00  0.00    +0.000 C 
ATOM     26  N   UNL     1      35.632  52.933  58.112  0.00  0.00    +0.000 NA
ENDBRANCH   2  25
TORSDOF 5
ENDMDL
