REMARK  Name = 
REMARK  2 active torsions:
REMARK  status: ('A' for Active; 'I' for Inactive)
REMARK    1  A    between atoms: C_5  and  C_6
REMARK    2  A    between atoms: C_7  and  C_8
REMARK                            x       y       z     vdW  Elec       q    Type
REMARK                         _______ _______ _______ _____ _____    ______ ____
ROOT
ATOM      1  C   UNL     1       0.579   0.385  -0.008  0.00  0.00    +0.000 C 
ATOM      2  C   UNL     1      -0.274  -0.594   0.020  0.00  0.00    +0.000 C 
ENDROOT
BRANCH   2   3
ATOM      3  C   UNL     1      -1.692  -0.329  -0.008  0.00  0.00    +0.000 A 
ATOM      4  C   UNL     1      -2.140   0.960  -0.064  0.00  0.00    +0.000 A 
ATOM      5  C   UNL     1      -3.486   1.255  -0.092  0.00  0.00    +0.000 A 
ATOM      6  O   UNL     1      -3.940   2.544  -0.148  0.00  0.00    +0.000 OA
ATOM      7  C   UNL     1      -4.377   0.219  -0.062  0.00  0.00    +0.000 A 
ATOM      8  C   UNL     1      -3.951  -1.086  -0.005  0.00  0.00    +0.000 A 
ATOM      9  O   UNL     1      -4.869  -2.119   0.024  0.00  0.00    +0.000 OA
ATOM     10  C   UNL     1      -2.596  -1.358   0.022  0.00  0.00    +0.000 A 
ENDBRANCH   2   3
BRANCH   1  15
ATOM     11  O   UNL     1       6.216  -0.234   0.085  0.00  0.00    +0.000 OA
ATOM     12  C   UNL     1       4.826  -0.098   0.063  0.00  0.00    +0.000 A 
ATOM     13  C   UNL     1       4.231   1.145   0.006  0.00  0.00    +0.000 A 
ATOM     14  C   UNL     1       2.853   1.318  -0.017  0.00  0.00    +0.000 A 
ATOM     15  C   UNL     1       2.024   0.217   0.016  0.00  0.00    +0.000 A 
ATOM     16  C   UNL     1       2.607  -1.031   0.072  0.00  0.00    +0.000 A 
ATOM     17  C   UNL     1       3.988  -1.193   0.096  0.00  0.00    +0.000 A 
ENDBRANCH   1  15
TORSDOF 2
