REMARK  Name = 
REMARK  4 active torsions:
REMARK  status: ('A' for Active; 'I' for Inactive)
REMARK    1  A    between atoms: O_2  and  C_3
REMARK    2  A    between atoms: C_5  and  C_6
REMARK    3  A    between atoms: C_7  and  C_8
REMARK    4  A    between atoms: C_17  and  O_18
REMARK                            x       y       z     vdW  Elec       q    Type
REMARK                         _______ _______ _______ _____ _____    ______ ____
ROOT
ATOM      1  C   UNL     1       3.549  -0.850   0.094  0.00  0.00    +0.000 A 
ATOM      2  C   UNL     1       2.646  -1.037  -0.916  0.00  0.00    +0.000 A 
ATOM      3  C   UNL     1       1.286  -0.656  -0.806  0.00  0.00    +0.000 A 
ATOM      4  C   UNL     1       0.992  -0.097   0.392  0.00  0.00    +0.000 A 
ATOM      5  C   UNL     1       1.844   0.118   1.441  0.00  0.00    +0.000 A 
ATOM      6  C   UNL     1       3.186  -0.274   1.292  0.00  0.00    +0.000 A 
ENDROOT
BRANCH   1   8
ATOM      7  C   UNL     1       5.292  -1.838  -1.278  0.00  0.00    +0.000 C 
ATOM      8  O   UNL     1       4.886  -1.249  -0.074  0.00  0.00    +0.000 OA
ENDBRANCH   1   8
BRANCH   3   9
ATOM      9  C   UNL     1       0.470  -0.915  -1.942  0.00  0.00    +0.000 C 
ATOM     10  C   UNL     1      -0.733  -0.673  -2.080  0.00  0.00    +0.000 C 
BRANCH  10  11
ATOM     11  C   UNL     1      -1.590  -0.071  -1.117  0.00  0.00    +0.000 A 
ATOM     12  C   UNL     1      -1.342   0.375   0.132  0.00  0.00    +0.000 A 
ATOM     13  C   UNL     1      -2.256   0.948   0.988  0.00  0.00    +0.000 A 
ATOM     14  C   UNL     1      -3.569   1.105   0.573  0.00  0.00    +0.000 A 
ATOM     15  O   UNL     1      -4.543   1.671   1.376  0.00  0.00    +0.000 OA
ATOM     16  C   UNL     1      -3.865   0.666  -0.689  0.00  0.00    +0.000 A 
ATOM     17  O   UNL     1      -5.185   0.826  -1.098  0.00  0.00    +0.000 OA
ATOM     18  C   UNL     1      -2.935   0.098  -1.520  0.00  0.00    +0.000 A 
ENDBRANCH  10  11
ENDBRANCH   3   9
BRANCH   5  19
ATOM     19  O   UNL     1       1.547   0.684   2.654  0.00  0.00    +0.000 OA
ATOM     20  C   UNL     1       0.321   1.169   3.102  0.00  0.00    +0.000 C 
ENDBRANCH   5  19
TORSDOF 4
