REMARK  Name = 
REMARK  7 active torsions:
REMARK  status: ('A' for Active; 'I' for Inactive)
REMARK    1  A    between atoms: O_2  and  C_3
REMARK    2  A    between atoms: C_6  and  C_7
REMARK    3  A    between atoms: C_7  and  N_21
REMARK    4  A    between atoms: C_8  and  C_9
REMARK    5  A    between atoms: C_11  and  O_12
REMARK    6  A    between atoms: C_14  and  O_15
REMARK    7  A    between atoms: C_17  and  O_18
REMARK                            x       y       z     vdW  Elec       q    Type
REMARK                         _______ _______ _______ _____ _____    ______ ____
ROOT
ATOM      1  C   UNL     1       1.175  -1.965  -0.113  0.00  0.00    +0.000 C 
ATOM      2  C   UNL     1      -0.096  -2.055   0.088  0.00  0.00    +0.000 C 
ENDROOT
BRANCH   1   6
ATOM      3  C   UNL     1       3.331   1.716  -0.294  0.00  0.00    +0.000 A 
ATOM      4  C   UNL     1       3.965   0.498  -0.348  0.00  0.00    +0.000 A 
ATOM      5  C   UNL     1       3.241  -0.674  -0.275  0.00  0.00    +0.000 A 
ATOM      6  C   UNL     1       1.844  -0.684  -0.144  0.00  0.00    +0.000 A 
ATOM      7  C   UNL     1       1.267   0.544  -0.096  0.00  0.00    +0.000 A 
ATOM      8  C   UNL     1       1.969   1.732  -0.166  0.00  0.00    +0.000 A 
BRANCH   3  10
ATOM      9  C   UNL     1       5.508   2.832  -0.495  0.00  0.00    +0.000 C 
ATOM     10  O   UNL     1       4.113   2.865  -0.369  0.00  0.00    +0.000 OA
ENDBRANCH   3  10
ENDBRANCH   1   6
BRANCH   2  11
ATOM     11  C   UNL     1      -1.042  -1.048   0.309  0.00  0.00    +0.000 A 
ATOM     12  C   UNL     1      -0.955  -0.042   1.207  0.00  0.00    +0.000 A 
ATOM     13  C   UNL     1      -1.925   0.914   1.379  0.00  0.00    +0.000 A 
ATOM     14  C   UNL     1      -3.070   0.886   0.616  0.00  0.00    +0.000 A 
ATOM     15  C   UNL     1      -3.207  -0.115  -0.308  0.00  0.00    +0.000 A 
ATOM     16  C   UNL     1      -2.223  -1.066  -0.469  0.00  0.00    +0.000 A 
BRANCH  13  17
ATOM     17  O   UNL     1      -1.784   1.930   2.322  0.00  0.00    +0.000 OA
ATOM     18  C   UNL     1      -0.609   1.990   3.129  0.00  0.00    +0.000 C 
ENDBRANCH  13  17
BRANCH  14  19
ATOM     19  O   UNL     1      -4.030   1.876   0.825  0.00  0.00    +0.000 OA
ATOM     20  C   UNL     1      -5.064   1.650   1.781  0.00  0.00    +0.000 C 
ENDBRANCH  14  19
BRANCH  15  21
ATOM     21  O   UNL     1      -4.377  -0.132  -1.076  0.00  0.00    +0.000 OA
ATOM     22  C   UNL     1      -4.568  -1.142  -2.047  0.00  0.00    +0.000 C 
ENDBRANCH  15  21
ENDBRANCH   2  11
BRANCH   1  23
ATOM     23  N   UNL     1       1.961  -3.179  -0.318  0.00  0.00    +0.000 N 
ATOM     24  O   UNL     1       2.181  -3.865   0.663  0.00  0.00    +0.000 OA
ATOM     25  O   UNL     1       2.393  -3.465  -1.558  0.00  0.00    +0.000 OA
ENDBRANCH   1  23
TORSDOF 7
