MODEL 1
REMARK VINA RESULT:      -7.0      0.000      0.000
REMARK  Name = 
REMARK  2 active torsions:
REMARK  status: ('A' for Active; 'I' for Inactive)
REMARK    1  A    between atoms: C_5  and  C_6
REMARK    2  A    between atoms: C_7  and  C_8
REMARK                            x       y       z     vdW  Elec       q    Type
REMARK                         _______ _______ _______ _____ _____    ______ ____
ROOT
ATOM      1  C   UNL     1      29.654  45.440  62.500  0.00  0.00    +0.000 C 
ATOM      2  C   UNL     1      29.674  44.302  62.012  0.00  0.00    +0.000 C 
ENDROOT
BRANCH   2   3
ATOM      3  C   UNL     1      28.579  43.393  61.909  0.00  0.00    +0.000 A 
ATOM      4  C   UNL     1      28.638  42.189  62.642  0.00  0.00    +0.000 A 
ATOM      5  C   UNL     1      27.650  41.247  62.620  0.00  0.00    +0.000 A 
ATOM      6  O   UNL     1      27.741  40.069  63.356  0.00  0.00    +0.000 OA
ATOM      7  C   UNL     1      26.516  41.423  61.866  0.00  0.00    +0.000 A 
ATOM      8  O   UNL     1      25.522  40.460  61.852  0.00  0.00    +0.000 OA
ATOM      9  C   UNL     1      26.409  42.603  61.119  0.00  0.00    +0.000 A 
ATOM     10  O   UNL     1      25.276  42.769  60.371  0.00  0.00    +0.000 OA
ATOM     11  C   UNL     1      27.441  43.511  61.186  0.00  0.00    +0.000 A 
ENDBRANCH   2   3
BRANCH   1  16
ATOM     12  O   UNL     1      25.132  48.386  64.253  0.00  0.00    +0.000 OA
ATOM     13  C   UNL     1      26.234  47.658  63.848  0.00  0.00    +0.000 A 
ATOM     14  C   UNL     1      26.808  47.763  62.606  0.00  0.00    +0.000 A 
ATOM     15  C   UNL     1      27.894  47.041  62.215  0.00  0.00    +0.000 A 
ATOM     16  C   UNL     1      28.534  46.105  63.075  0.00  0.00    +0.000 A 
ATOM     17  C   UNL     1      27.947  46.024  64.290  0.00  0.00    +0.000 A 
ATOM     18  C   UNL     1      26.853  46.741  64.703  0.00  0.00    +0.000 A 
ENDBRANCH   1  16
TORSDOF 2
ENDMDL
MODEL 2
REMARK VINA RESULT:      -6.9      1.052      5.786
REMARK  Name = 
REMARK  2 active torsions:
REMARK  status: ('A' for Active; 'I' for Inactive)
REMARK    1  A    between atoms: C_5  and  C_6
REMARK    2  A    between atoms: C_7  and  C_8
REMARK                            x       y       z     vdW  Elec       q    Type
REMARK                         _______ _______ _______ _____ _____    ______ ____
ROOT
ATOM      1  C   UNL     1      29.818  44.087  62.097  0.00  0.00    +0.000 C 
ATOM      2  C   UNL     1      29.866  45.254  62.509  0.00  0.00    +0.000 C 
ENDROOT
BRANCH   2   3
ATOM      3  C   UNL     1      28.762  46.082  62.875  0.00  0.00    +0.000 A 
ATOM      4  C   UNL     1      28.396  47.131  62.006  0.00  0.00    +0.000 A 
ATOM      5  C   UNL     1      27.359  47.983  62.253  0.00  0.00    +0.000 A 
ATOM      6  O   UNL     1      27.025  49.010  61.374  0.00  0.00    +0.000 OA
ATOM      7  C   UNL     1      26.595  47.864  63.388  0.00  0.00    +0.000 A 
ATOM      8  O   UNL     1      25.546  48.735  63.627  0.00  0.00    +0.000 OA
ATOM      9  C   UNL     1      26.918  46.836  64.284  0.00  0.00    +0.000 A 
ATOM     10  O   UNL     1      26.152  46.726  65.411  0.00  0.00    +0.000 OA
ATOM     11  C   UNL     1      27.976  46.013  63.974  0.00  0.00    +0.000 A 
ENDBRANCH   2   3
BRANCH   1  16
ATOM     12  O   UNL     1      25.396  40.554  61.682  0.00  0.00    +0.000 OA
ATOM     13  C   UNL     1      26.462  41.429  61.766  0.00  0.00    +0.000 A 
ATOM     14  C   UNL     1      27.556  41.229  62.571  0.00  0.00    +0.000 A 
ATOM     15  C   UNL     1      28.602  42.097  62.649  0.00  0.00    +0.000 A 
ATOM     16  C   UNL     1      28.649  43.300  61.890  0.00  0.00    +0.000 A 
ATOM     17  C   UNL     1      27.560  43.469  61.108  0.00  0.00    +0.000 A 
ATOM     18  C   UNL     1      26.496  42.608  61.015  0.00  0.00    +0.000 A 
ENDBRANCH   1  16
TORSDOF 2
ENDMDL
MODEL 3
REMARK VINA RESULT:      -6.4      1.711      5.586
REMARK  Name = 
REMARK  2 active torsions:
REMARK  status: ('A' for Active; 'I' for Inactive)
REMARK    1  A    between atoms: C_5  and  C_6
REMARK    2  A    between atoms: C_7  and  C_8
REMARK                            x       y       z     vdW  Elec       q    Type
REMARK                         _______ _______ _______ _____ _____    ______ ____
ROOT
ATOM      1  C   UNL     1      30.374  44.162  62.371  0.00  0.00    +0.000 C 
ATOM      2  C   UNL     1      30.305  45.271  62.919  0.00  0.00    +0.000 C 
ENDROOT
BRANCH   2   3
ATOM      3  C   UNL     1      29.173  46.139  62.963  0.00  0.00    +0.000 A 
ATOM      4  C   UNL     1      28.283  46.021  64.051  0.00  0.00    +0.000 A 
ATOM      5  C   UNL     1      27.169  46.797  64.197  0.00  0.00    +0.000 A 
ATOM      6  O   UNL     1      26.311  46.654  65.284  0.00  0.00    +0.000 OA
ATOM      7  C   UNL     1      26.846  47.759  63.272  0.00  0.00    +0.000 A 
ATOM      8  O   UNL     1      25.713  48.538  63.432  0.00  0.00    +0.000 OA
ATOM      9  C   UNL     1      27.699  47.914  62.172  0.00  0.00    +0.000 A 
ATOM     10  O   UNL     1      27.368  48.874  61.256  0.00  0.00    +0.000 OA
ATOM     11  C   UNL     1      28.804  47.100  62.085  0.00  0.00    +0.000 A 
ENDBRANCH   2   3
BRANCH   1  16
ATOM     12  O   UNL     1      26.690  41.293  59.145  0.00  0.00    +0.000 OA
ATOM     13  C   UNL     1      27.568  42.000  59.945  0.00  0.00    +0.000 A 
ATOM     14  C   UNL     1      28.926  42.035  59.747  0.00  0.00    +0.000 A 
ATOM     15  C   UNL     1      29.785  42.733  60.539  0.00  0.00    +0.000 A 
ATOM     16  C   UNL     1      29.339  43.497  61.654  0.00  0.00    +0.000 A 
ATOM     17  C   UNL     1      27.999  43.443  61.823  0.00  0.00    +0.000 A 
ATOM     18  C   UNL     1      27.117  42.746  61.037  0.00  0.00    +0.000 A 
ENDBRANCH   1  16
TORSDOF 2
ENDMDL
MODEL 4
REMARK VINA RESULT:      -6.3     12.854     14.793
REMARK  Name = 
REMARK  2 active torsions:
REMARK  status: ('A' for Active; 'I' for Inactive)
REMARK    1  A    between atoms: C_5  and  C_6
REMARK    2  A    between atoms: C_7  and  C_8
REMARK                            x       y       z     vdW  Elec       q    Type
REMARK                         _______ _______ _______ _____ _____    ______ ____
ROOT
ATOM      1  C   UNL     1      34.873  57.716  59.779  0.00  0.00    +0.000 C 
ATOM      2  C   UNL     1      34.745  56.647  60.391  0.00  0.00    +0.000 C 
ENDROOT
BRANCH   2   3
ATOM      3  C   UNL     1      34.824  55.330  59.847  0.00  0.00    +0.000 A 
ATOM      4  C   UNL     1      36.096  54.733  59.722  0.00  0.00    +0.000 A 
ATOM      5  C   UNL     1      36.290  53.481  59.216  0.00  0.00    +0.000 A 
ATOM      6  O   UNL     1      37.560  52.921  59.106  0.00  0.00    +0.000 OA
ATOM      7  C   UNL     1      35.234  52.713  58.791  0.00  0.00    +0.000 A 
ATOM      8  O   UNL     1      35.445  51.444  58.280  0.00  0.00    +0.000 OA
ATOM      9  C   UNL     1      33.949  53.261  58.894  0.00  0.00    +0.000 A 
ATOM     10  O   UNL     1      32.904  52.489  58.469  0.00  0.00    +0.000 OA
ATOM     11  C   UNL     1      33.823  54.529  59.413  0.00  0.00    +0.000 A 
ENDBRANCH   2   3
BRANCH   1  16
ATOM     12  O   UNL     1      35.308  58.598  54.189  0.00  0.00    +0.000 OA
ATOM     13  C   UNL     1      35.225  58.374  55.551  0.00  0.00    +0.000 A 
ATOM     14  C   UNL     1      34.119  58.666  56.309  0.00  0.00    +0.000 A 
ATOM     15  C   UNL     1      34.045  58.442  57.650  0.00  0.00    +0.000 A 
ATOM     16  C   UNL     1      35.125  57.879  58.386  0.00  0.00    +0.000 A 
ATOM     17  C   UNL     1      36.199  57.602  57.613  0.00  0.00    +0.000 A 
ATOM     18  C   UNL     1      36.293  57.820  56.263  0.00  0.00    +0.000 A 
ENDBRANCH   1  16
TORSDOF 2
ENDMDL
MODEL 5
REMARK VINA RESULT:      -6.2     12.831     14.840
REMARK  Name = 
REMARK  2 active torsions:
REMARK  status: ('A' for Active; 'I' for Inactive)
REMARK    1  A    between atoms: C_5  and  C_6
REMARK    2  A    between atoms: C_7  and  C_8
REMARK                            x       y       z     vdW  Elec       q    Type
REMARK                         _______ _______ _______ _____ _____    ______ ____
ROOT
ATOM      1  C   UNL     1      34.793  57.718  59.606  0.00  0.00    +0.000 C 
ATOM      2  C   UNL     1      34.714  56.674  60.267  0.00  0.00    +0.000 C 
ENDROOT
BRANCH   2   3
ATOM      3  C   UNL     1      34.921  55.342  59.798  0.00  0.00    +0.000 A 
ATOM      4  C   UNL     1      33.790  54.566  59.469  0.00  0.00    +0.000 A 
ATOM      5  C   UNL     1      33.868  53.282  59.011  0.00  0.00    +0.000 A 
ATOM      6  O   UNL     1      32.731  52.544  58.696  0.00  0.00    +0.000 OA
ATOM      7  C   UNL     1      35.081  52.660  58.840  0.00  0.00    +0.000 A 
ATOM      8  O   UNL     1      35.145  51.358  58.375  0.00  0.00    +0.000 OA
ATOM      9  C   UNL     1      36.235  53.390  59.154  0.00  0.00    +0.000 A 
ATOM     10  O   UNL     1      37.437  52.761  58.981  0.00  0.00    +0.000 OA
ATOM     11  C   UNL     1      36.085  54.678  59.611  0.00  0.00    +0.000 A 
ENDBRANCH   2   3
BRANCH   1  16
ATOM     12  O   UNL     1      35.502  58.460  54.024  0.00  0.00    +0.000 OA
ATOM     13  C   UNL     1      35.351  58.268  55.384  0.00  0.00    +0.000 A 
ATOM     14  C   UNL     1      34.257  58.685  56.100  0.00  0.00    +0.000 A 
ATOM     15  C   UNL     1      34.116  58.492  57.441  0.00  0.00    +0.000 A 
ATOM     16  C   UNL     1      35.106  57.831  58.221  0.00  0.00    +0.000 A 
ATOM     17  C   UNL     1      36.170  57.433  57.489  0.00  0.00    +0.000 A 
ATOM     18  C   UNL     1      36.331  57.617  56.140  0.00  0.00    +0.000 A 
ENDBRANCH   1  16
TORSDOF 2
ENDMDL
MODEL 6
REMARK VINA RESULT:      -6.2     13.255     15.916
REMARK  Name = 
REMARK  2 active torsions:
REMARK  status: ('A' for Active; 'I' for Inactive)
REMARK    1  A    between atoms: C_5  and  C_6
REMARK    2  A    between atoms: C_7  and  C_8
REMARK                            x       y       z     vdW  Elec       q    Type
REMARK                         _______ _______ _______ _____ _____    ______ ____
ROOT
ATOM      1  C   UNL     1      36.433  56.301  59.910  0.00  0.00    +0.000 C 
ATOM      2  C   UNL     1      36.566  57.377  59.310  0.00  0.00    +0.000 C 
ENDROOT
BRANCH   2   3
ATOM      3  C   UNL     1      35.780  57.855  58.219  0.00  0.00    +0.000 A 
ATOM      4  C   UNL     1      36.256  57.642  56.908  0.00  0.00    +0.000 A 
ATOM      5  C   UNL     1      35.590  58.054  55.791  0.00  0.00    +0.000 A 
ATOM      6  O   UNL     1      36.088  57.828  54.511  0.00  0.00    +0.000 OA
ATOM      7  C   UNL     1      34.389  58.715  55.882  0.00  0.00    +0.000 A 
ATOM      8  O   UNL     1      33.723  59.128  54.741  0.00  0.00    +0.000 OA
ATOM      9  C   UNL     1      33.874  58.952  57.163  0.00  0.00    +0.000 A 
ATOM     10  O   UNL     1      32.678  59.611  57.243  0.00  0.00    +0.000 OA
ATOM     11  C   UNL     1      34.596  58.510  58.247  0.00  0.00    +0.000 A 
ENDBRANCH   2   3
BRANCH   1  16
ATOM     12  O   UNL     1      32.998  52.010  58.498  0.00  0.00    +0.000 OA
ATOM     13  C   UNL     1      33.817  53.064  58.856  0.00  0.00    +0.000 A 
ATOM     14  C   UNL     1      35.100  53.229  58.397  0.00  0.00    +0.000 A 
ATOM     15  C   UNL     1      35.900  54.270  58.755  0.00  0.00    +0.000 A 
ATOM     16  C   UNL     1      35.465  55.290  59.647  0.00  0.00    +0.000 A 
ATOM     17  C   UNL     1      34.199  55.101  60.082  0.00  0.00    +0.000 A 
ATOM     18  C   UNL     1      33.378  54.060  59.734  0.00  0.00    +0.000 A 
ENDBRANCH   1  16
TORSDOF 2
ENDMDL
MODEL 7
REMARK VINA RESULT:      -6.2     13.201     15.910
REMARK  Name = 
REMARK  2 active torsions:
REMARK  status: ('A' for Active; 'I' for Inactive)
REMARK    1  A    between atoms: C_5  and  C_6
REMARK    2  A    between atoms: C_7  and  C_8
REMARK                            x       y       z     vdW  Elec       q    Type
REMARK                         _______ _______ _______ _____ _____    ______ ____
ROOT
ATOM      1  C   UNL     1      36.255  56.288  60.059  0.00  0.00    +0.000 C 
ATOM      2  C   UNL     1      36.347  57.395  59.511  0.00  0.00    +0.000 C 
ENDROOT
BRANCH   2   3
ATOM      3  C   UNL     1      35.768  57.790  58.268  0.00  0.00    +0.000 A 
ATOM      4  C   UNL     1      34.545  58.493  58.294  0.00  0.00    +0.000 A 
ATOM      5  C   UNL     1      33.901  58.919  57.169  0.00  0.00    +0.000 A 
ATOM      6  O   UNL     1      32.694  59.610  57.230  0.00  0.00    +0.000 OA
ATOM      7  C   UNL     1      34.420  58.684  55.919  0.00  0.00    +0.000 A 
ATOM      8  O   UNL     1      33.756  59.122  54.786  0.00  0.00    +0.000 OA
ATOM      9  C   UNL     1      35.634  57.989  55.841  0.00  0.00    +0.000 A 
ATOM     10  O   UNL     1      36.142  57.759  54.592  0.00  0.00    +0.000 OA
ATOM     11  C   UNL     1      36.230  57.587  57.013  0.00  0.00    +0.000 A 
ENDBRANCH   2   3
BRANCH   1  16
ATOM     12  O   UNL     1      32.973  51.940  58.468  0.00  0.00    +0.000 OA
ATOM     13  C   UNL     1      33.790  52.990  58.841  0.00  0.00    +0.000 A 
ATOM     14  C   UNL     1      33.416  53.979  59.717  0.00  0.00    +0.000 A 
ATOM     15  C   UNL     1      34.228  55.010  60.079  0.00  0.00    +0.000 A 
ATOM     16  C   UNL     1      35.551  55.150  59.572  0.00  0.00    +0.000 A 
ATOM     17  C   UNL     1      35.890  54.162  58.714  0.00  0.00    +0.000 A 
ATOM     18  C   UNL     1      35.088  53.115  58.337  0.00  0.00    +0.000 A 
ENDBRANCH   1  16
TORSDOF 2
ENDMDL
MODEL 8
REMARK VINA RESULT:      -6.1     12.105     14.329
REMARK  Name = 
REMARK  2 active torsions:
REMARK  status: ('A' for Active; 'I' for Inactive)
REMARK    1  A    between atoms: C_5  and  C_6
REMARK    2  A    between atoms: C_7  and  C_8
REMARK                            x       y       z     vdW  Elec       q    Type
REMARK                         _______ _______ _______ _____ _____    ______ ____
ROOT
ATOM      1  C   UNL     1      34.923  54.150  60.027  0.00  0.00    +0.000 C 
ATOM      2  C   UNL     1      35.857  54.871  59.651  0.00  0.00    +0.000 C 
ENDROOT
BRANCH   2   3
ATOM      3  C   UNL     1      37.253  54.585  59.743  0.00  0.00    +0.000 A 
ATOM      4  C   UNL     1      37.853  53.841  58.705  0.00  0.00    +0.000 A 
ATOM      5  C   UNL     1      39.177  53.510  58.688  0.00  0.00    +0.000 A 
ATOM      6  O   UNL     1      39.737  52.774  57.648  0.00  0.00    +0.000 OA
ATOM      7  C   UNL     1      40.019  53.894  59.703  0.00  0.00    +0.000 A 
ATOM      8  O   UNL     1      41.360  53.551  59.673  0.00  0.00    +0.000 OA
ATOM      9  C   UNL     1      39.471  54.635  60.757  0.00  0.00    +0.000 A 
ATOM     10  O   UNL     1      40.318  55.011  61.763  0.00  0.00    +0.000 OA
ATOM     11  C   UNL     1      38.129  54.934  60.713  0.00  0.00    +0.000 A 
ENDBRANCH   2   3
BRANCH   1  16
ATOM     12  O   UNL     1      35.192  48.806  61.920  0.00  0.00    +0.000 OA
ATOM     13  C   UNL     1      35.132  50.116  61.482  0.00  0.00    +0.000 A 
ATOM     14  C   UNL     1      34.841  50.479  60.190  0.00  0.00    +0.000 A 
ATOM     15  C   UNL     1      34.784  51.771  59.766  0.00  0.00    +0.000 A 
ATOM     16  C   UNL     1      35.024  52.868  60.641  0.00  0.00    +0.000 A 
ATOM     17  C   UNL     1      35.307  52.479  61.904  0.00  0.00    +0.000 A 
ATOM     18  C   UNL     1      35.370  51.185  62.350  0.00  0.00    +0.000 A 
ENDBRANCH   1  16
TORSDOF 2
ENDMDL
MODEL 9
REMARK VINA RESULT:      -6.1     12.041     14.260
REMARK  Name = 
REMARK  2 active torsions:
REMARK  status: ('A' for Active; 'I' for Inactive)
REMARK    1  A    between atoms: C_5  and  C_6
REMARK    2  A    between atoms: C_7  and  C_8
REMARK                            x       y       z     vdW  Elec       q    Type
REMARK                         _______ _______ _______ _____ _____    ______ ____
ROOT
ATOM      1  C   UNL     1      34.868  54.066  60.232  0.00  0.00    +0.000 C 
ATOM      2  C   UNL     1      35.795  54.816  59.896  0.00  0.00    +0.000 C 
ENDROOT
BRANCH   2   3
ATOM      3  C   UNL     1      37.172  54.469  59.754  0.00  0.00    +0.000 A 
ATOM      4  C   UNL     1      38.071  54.871  60.764  0.00  0.00    +0.000 A 
ATOM      5  C   UNL     1      39.407  54.595  60.733  0.00  0.00    +0.000 A 
ATOM      6  O   UNL     1      40.267  55.007  61.747  0.00  0.00    +0.000 OA
ATOM      7  C   UNL     1      39.965  53.893  59.692  0.00  0.00    +0.000 A 
ATOM      8  O   UNL     1      41.322  53.620  59.673  0.00  0.00    +0.000 OA
ATOM      9  C   UNL     1      39.113  53.472  58.663  0.00  0.00    +0.000 A 
ATOM     10  O   UNL     1      39.678  52.774  57.631  0.00  0.00    +0.000 OA
ATOM     11  C   UNL     1      37.777  53.783  58.756  0.00  0.00    +0.000 A 
ENDBRANCH   2   3
BRANCH   1  16
ATOM     12  O   UNL     1      35.377  48.731  62.098  0.00  0.00    +0.000 OA
ATOM     13  C   UNL     1      35.248  50.022  61.621  0.00  0.00    +0.000 A 
ATOM     14  C   UNL     1      35.419  51.145  62.392  0.00  0.00    +0.000 A 
ATOM     15  C   UNL     1      35.290  52.413  61.915  0.00  0.00    +0.000 A 
ATOM     16  C   UNL     1      34.962  52.683  60.556  0.00  0.00    +0.000 A 
ATOM     17  C   UNL     1      34.801  51.559  59.823  0.00  0.00    +0.000 A 
ATOM     18  C   UNL     1      34.926  50.274  60.285  0.00  0.00    +0.000 A 
ENDBRANCH   1  16
TORSDOF 2
ENDMDL
MODEL 10
REMARK VINA RESULT:      -5.7     12.680     14.727
REMARK  Name = 
REMARK  2 active torsions:
REMARK  status: ('A' for Active; 'I' for Inactive)
REMARK    1  A    between atoms: C_5  and  C_6
REMARK    2  A    between atoms: C_7  and  C_8
REMARK                            x       y       z     vdW  Elec       q    Type
REMARK                         _______ _______ _______ _____ _____    ______ ____
ROOT
ATOM      1  C   UNL     1      39.505  55.066  61.024  0.00  0.00    +0.000 C 
ATOM      2  C   UNL     1      38.278  55.196  60.923  0.00  0.00    +0.000 C 
ENDROOT
BRANCH   2   3
ATOM      3  C   UNL     1      37.333  54.186  60.572  0.00  0.00    +0.000 A 
ATOM      4  C   UNL     1      36.608  53.559  61.608  0.00  0.00    +0.000 A 
ATOM      5  C   UNL     1      35.681  52.582  61.390  0.00  0.00    +0.000 A 
ATOM      6  O   UNL     1      34.983  51.984  62.436  0.00  0.00    +0.000 OA
ATOM      7  C   UNL     1      35.393  52.144  60.121  0.00  0.00    +0.000 A 
ATOM      8  O   UNL     1      34.450  51.152  59.914  0.00  0.00    +0.000 OA
ATOM      9  C   UNL     1      36.086  52.735  59.057  0.00  0.00    +0.000 A 
ATOM     10  O   UNL     1      35.792  52.292  57.797  0.00  0.00    +0.000 OA
ATOM     11  C   UNL     1      37.008  53.714  59.346  0.00  0.00    +0.000 A 
ENDBRANCH   2   3
BRANCH   1  16
ATOM     12  O   UNL     1      42.576  50.513  59.593  0.00  0.00    +0.000 OA
ATOM     13  C   UNL     1      41.827  51.613  59.965  0.00  0.00    +0.000 A 
ATOM     14  C   UNL     1      41.486  52.632  59.111  0.00  0.00    +0.000 A 
ATOM     15  C   UNL     1      40.748  53.713  59.485  0.00  0.00    +0.000 A 
ATOM     16  C   UNL     1      40.259  53.876  60.812  0.00  0.00    +0.000 A 
ATOM     17  C   UNL     1      40.610  52.858  61.628  0.00  0.00    +0.000 A 
ATOM     18  C   UNL     1      41.353  51.762  61.272  0.00  0.00    +0.000 A 
ENDBRANCH   1  16
TORSDOF 2
ENDMDL
