MODEL 1
REMARK VINA RESULT:      -7.1      0.000      0.000
REMARK  Name = 
REMARK  5 active torsions:
REMARK  status: ('A' for Active; 'I' for Inactive)
REMARK    1  A    between atoms: C_2  and  C_3
REMARK    2  A    between atoms: C_5  and  O_6
REMARK    3  A    between atoms: O_6  and  C_7
REMARK    4  A    between atoms: C_10  and  C_11
REMARK    5  A    between atoms: C_12  and  C_13
REMARK                            x       y       z     vdW  Elec       q    Type
REMARK                         _______ _______ _______ _____ _____    ______ ____
ROOT
ATOM      1  C   UNL     1      37.062  54.040  60.896  0.00  0.00    +0.000 A 
ATOM      2  C   UNL     1      37.890  53.926  59.795  0.00  0.00    +0.000 A 
ATOM      3  C   UNL     1      37.630  54.610  58.620  0.00  0.00    +0.000 A 
ATOM      4  C   UNL     1      36.526  55.431  58.529  0.00  0.00    +0.000 A 
ATOM      5  C   UNL     1      35.702  55.558  59.594  0.00  0.00    +0.000 A 
ATOM      6  C   UNL     1      35.978  54.858  60.777  0.00  0.00    +0.000 A 
ENDROOT
BRANCH   4   7
ATOM      7  C   UNL     1      36.216  56.171  57.308  0.00  0.00    +0.000 C 
ATOM      8  C   UNL     1      35.633  57.355  57.350  0.00  0.00    +0.000 C 
BRANCH   8   9
ATOM      9  C   UNL     1      35.321  58.104  56.113  0.00  0.00    +0.000 A 
ATOM     10  C   UNL     1      34.172  58.862  55.987  0.00  0.00    +0.000 A 
ATOM     11  C   UNL     1      33.866  59.567  54.837  0.00  0.00    +0.000 A 
ATOM     12  O   UNL     1      32.700  60.330  54.727  0.00  0.00    +0.000 OA
ATOM     13  C   UNL     1      34.746  59.515  53.759  0.00  0.00    +0.000 A 
ATOM     14  C   UNL     1      35.898  58.766  53.859  0.00  0.00    +0.000 A 
ATOM     15  O   UNL     1      36.762  58.721  52.783  0.00  0.00    +0.000 OA
ATOM     16  C   UNL     1      36.166  58.077  55.026  0.00  0.00    +0.000 A 
ENDBRANCH   8   9
ENDBRANCH   4   7
BRANCH   1  17
ATOM     17  O   UNL     1      37.390  53.336  62.014  0.00  0.00    +0.000 OA
BRANCH  17  20
ATOM     18  C   UNL     1      36.314  50.336  60.917  0.00  0.00    +0.000 C 
ATOM     19  O   UNL     1      35.991  51.659  61.554  0.00  0.00    +0.000 OA
ATOM     20  C   UNL     1      37.539  51.838  61.710  0.00  0.00    +0.000 C 
ATOM     21  C   UNL     1      37.344  51.343  63.379  0.00  0.00    +0.000 C 
ATOM     22  O   UNL     1      38.751  51.633  63.726  0.00  0.00    +0.000 OA
ATOM     23  C   UNL     1      37.701  49.742  62.940  0.00  0.00    +0.000 C 
ATOM     24  O   UNL     1      37.347  49.194  64.289  0.00  0.00    +0.000 OA
ATOM     25  C   UNL     1      36.200  49.315  62.282  0.00  0.00    +0.000 C 
ATOM     26  O   UNL     1      35.284  50.077  63.152  0.00  0.00    +0.000 OA
BRANCH  18  28
ATOM     27  O   UNL     1      34.486  50.932  59.461  0.00  0.00    +0.000 OA
ATOM     28  C   UNL     1      34.764  50.041  60.483  0.00  0.00    +0.000 C 
ENDBRANCH  18  28
ENDBRANCH  17  20
ENDBRANCH   1  17
TORSDOF 5
ENDMDL
MODEL 2
REMARK VINA RESULT:      -7.0      2.155     10.050
REMARK  Name = 
REMARK  5 active torsions:
REMARK  status: ('A' for Active; 'I' for Inactive)
REMARK    1  A    between atoms: C_2  and  C_3
REMARK    2  A    between atoms: C_5  and  O_6
REMARK    3  A    between atoms: O_6  and  C_7
REMARK    4  A    between atoms: C_10  and  C_11
REMARK    5  A    between atoms: C_12  and  C_13
REMARK                            x       y       z     vdW  Elec       q    Type
REMARK                         _______ _______ _______ _____ _____    ______ ____
ROOT
ATOM      1  C   UNL     1      35.411  57.121  58.311  0.00  0.00    +0.000 A 
ATOM      2  C   UNL     1      34.584  56.666  59.321  0.00  0.00    +0.000 A 
ATOM      3  C   UNL     1      34.729  55.400  59.862  0.00  0.00    +0.000 A 
ATOM      4  C   UNL     1      35.719  54.560  59.395  0.00  0.00    +0.000 A 
ATOM      5  C   UNL     1      36.539  54.984  58.407  0.00  0.00    +0.000 A 
ATOM      6  C   UNL     1      36.378  56.268  57.869  0.00  0.00    +0.000 A 
ENDROOT
BRANCH   4   7
ATOM      7  C   UNL     1      35.906  53.218  59.939  0.00  0.00    +0.000 C 
ATOM      8  C   UNL     1      36.841  52.410  59.470  0.00  0.00    +0.000 C 
BRANCH   8   9
ATOM      9  C   UNL     1      37.030  51.050  60.022  0.00  0.00    +0.000 A 
ATOM     10  C   UNL     1      36.070  50.438  60.806  0.00  0.00    +0.000 A 
ATOM     11  C   UNL     1      36.233  49.168  61.328  0.00  0.00    +0.000 A 
ATOM     12  O   UNL     1      35.251  48.564  62.119  0.00  0.00    +0.000 OA
ATOM     13  C   UNL     1      37.408  48.472  61.057  0.00  0.00    +0.000 A 
ATOM     14  C   UNL     1      38.381  49.059  60.278  0.00  0.00    +0.000 A 
ATOM     15  O   UNL     1      39.542  48.360  60.018  0.00  0.00    +0.000 OA
ATOM     16  C   UNL     1      38.178  50.331  59.776  0.00  0.00    +0.000 A 
ENDBRANCH   8   9
ENDBRANCH   4   7
BRANCH   1  17
ATOM     17  O   UNL     1      35.202  58.379  57.836  0.00  0.00    +0.000 OA
BRANCH  17  20
ATOM     18  C   UNL     1      35.414  58.419  54.473  0.00  0.00    +0.000 C 
ATOM     19  O   UNL     1      35.981  58.846  55.798  0.00  0.00    +0.000 OA
ATOM     20  C   UNL     1      34.628  58.354  56.413  0.00  0.00    +0.000 C 
ATOM     21  C   UNL     1      34.127  60.033  56.441  0.00  0.00    +0.000 C 
ATOM     22  O   UNL     1      32.881  59.744  57.180  0.00  0.00    +0.000 OA
ATOM     23  C   UNL     1      33.372  59.827  54.934  0.00  0.00    +0.000 C 
ATOM     24  O   UNL     1      33.088  61.290  54.771  0.00  0.00    +0.000 OA
ATOM     25  C   UNL     1      34.746  59.900  53.946  0.00  0.00    +0.000 C 
ATOM     26  O   UNL     1      35.569  60.879  54.680  0.00  0.00    +0.000 OA
BRANCH  18  28
ATOM     27  O   UNL     1      37.767  57.914  54.304  0.00  0.00    +0.000 OA
ATOM     28  C   UNL     1      36.812  58.685  53.663  0.00  0.00    +0.000 C 
ENDBRANCH  18  28
ENDBRANCH  17  20
ENDBRANCH   1  17
TORSDOF 5
ENDMDL
MODEL 3
REMARK VINA RESULT:      -7.0      2.236     10.255
REMARK  Name = 
REMARK  5 active torsions:
REMARK  status: ('A' for Active; 'I' for Inactive)
REMARK    1  A    between atoms: C_2  and  C_3
REMARK    2  A    between atoms: C_5  and  O_6
REMARK    3  A    between atoms: O_6  and  C_7
REMARK    4  A    between atoms: C_10  and  C_11
REMARK    5  A    between atoms: C_12  and  C_13
REMARK                            x       y       z     vdW  Elec       q    Type
REMARK                         _______ _______ _______ _____ _____    ______ ____
ROOT
ATOM      1  C   UNL     1      35.514  56.988  58.221  0.00  0.00    +0.000 A 
ATOM      2  C   UNL     1      34.618  56.726  59.240  0.00  0.00    +0.000 A 
ATOM      3  C   UNL     1      34.558  55.486  59.852  0.00  0.00    +0.000 A 
ATOM      4  C   UNL     1      35.408  54.477  59.449  0.00  0.00    +0.000 A 
ATOM      5  C   UNL     1      36.293  54.710  58.453  0.00  0.00    +0.000 A 
ATOM      6  C   UNL     1      36.340  55.972  57.843  0.00  0.00    +0.000 A 
ENDROOT
BRANCH   4   7
ATOM      7  C   UNL     1      35.378  53.154  60.068  0.00  0.00    +0.000 C 
ATOM      8  C   UNL     1      36.359  52.288  59.888  0.00  0.00    +0.000 C 
BRANCH   8   9
ATOM      9  C   UNL     1      36.328  50.949  60.516  0.00  0.00    +0.000 A 
ATOM     10  C   UNL     1      37.408  50.088  60.457  0.00  0.00    +0.000 A 
ATOM     11  C   UNL     1      37.394  48.833  61.039  0.00  0.00    +0.000 A 
ATOM     12  O   UNL     1      38.496  47.975  60.970  0.00  0.00    +0.000 OA
ATOM     13  C   UNL     1      36.249  48.414  61.713  0.00  0.00    +0.000 A 
ATOM     14  C   UNL     1      35.159  49.253  61.786  0.00  0.00    +0.000 A 
ATOM     15  O   UNL     1      34.030  48.827  62.455  0.00  0.00    +0.000 OA
ATOM     16  C   UNL     1      35.215  50.500  61.191  0.00  0.00    +0.000 A 
ENDBRANCH   8   9
ENDBRANCH   4   7
BRANCH   1  17
ATOM     17  O   UNL     1      35.509  58.235  57.675  0.00  0.00    +0.000 OA
BRANCH  17  20
ATOM     18  C   UNL     1      35.617  58.462  54.315  0.00  0.00    +0.000 C 
ATOM     19  O   UNL     1      36.182  58.873  55.646  0.00  0.00    +0.000 OA
ATOM     20  C   UNL     1      34.898  58.229  56.267  0.00  0.00    +0.000 C 
ATOM     21  C   UNL     1      34.248  59.851  56.396  0.00  0.00    +0.000 C 
ATOM     22  O   UNL     1      33.055  59.413  57.150  0.00  0.00    +0.000 OA
ATOM     23  C   UNL     1      33.471  59.653  54.899  0.00  0.00    +0.000 C 
ATOM     24  O   UNL     1      33.052  61.089  54.821  0.00  0.00    +0.000 OA
ATOM     25  C   UNL     1      34.803  59.900  53.883  0.00  0.00    +0.000 C 
ATOM     26  O   UNL     1      35.556  60.913  54.647  0.00  0.00    +0.000 OA
BRANCH  18  28
ATOM     27  O   UNL     1      38.026  58.590  54.315  0.00  0.00    +0.000 OA
ATOM     28  C   UNL     1      36.961  58.896  53.486  0.00  0.00    +0.000 C 
ENDBRANCH  18  28
ENDBRANCH  17  20
ENDBRANCH   1  17
TORSDOF 5
ENDMDL
MODEL 4
REMARK VINA RESULT:      -7.0      2.898      3.722
REMARK  Name = 
REMARK  5 active torsions:
REMARK  status: ('A' for Active; 'I' for Inactive)
REMARK    1  A    between atoms: C_2  and  C_3
REMARK    2  A    between atoms: C_5  and  O_6
REMARK    3  A    between atoms: O_6  and  C_7
REMARK    4  A    between atoms: C_10  and  C_11
REMARK    5  A    between atoms: C_12  and  C_13
REMARK                            x       y       z     vdW  Elec       q    Type
REMARK                         _______ _______ _______ _____ _____    ______ ____
ROOT
ATOM      1  C   UNL     1      37.923  52.784  60.156  0.00  0.00    +0.000 A 
ATOM      2  C   UNL     1      36.877  52.422  59.327  0.00  0.00    +0.000 A 
ATOM      3  C   UNL     1      36.188  53.360  58.578  0.00  0.00    +0.000 A 
ATOM      4  C   UNL     1      36.543  54.692  58.646  0.00  0.00    +0.000 A 
ATOM      5  C   UNL     1      37.563  55.069  59.450  0.00  0.00    +0.000 A 
ATOM      6  C   UNL     1      38.249  54.106  60.203  0.00  0.00    +0.000 A 
ENDROOT
BRANCH   4   7
ATOM      7  C   UNL     1      35.843  55.713  57.871  0.00  0.00    +0.000 C 
ATOM      8  C   UNL     1      36.476  56.456  56.981  0.00  0.00    +0.000 C 
BRANCH   8   9
ATOM      9  C   UNL     1      35.767  57.491  56.197  0.00  0.00    +0.000 A 
ATOM     10  C   UNL     1      34.801  58.302  56.761  0.00  0.00    +0.000 A 
ATOM     11  C   UNL     1      34.129  59.273  56.040  0.00  0.00    +0.000 A 
ATOM     12  O   UNL     1      33.154  60.085  56.628  0.00  0.00    +0.000 OA
ATOM     13  C   UNL     1      34.433  59.445  54.693  0.00  0.00    +0.000 A 
ATOM     14  C   UNL     1      35.392  58.649  54.106  0.00  0.00    +0.000 A 
ATOM     15  O   UNL     1      35.684  58.828  52.769  0.00  0.00    +0.000 OA
ATOM     16  C   UNL     1      36.040  57.691  54.862  0.00  0.00    +0.000 A 
ENDBRANCH   8   9
ENDBRANCH   4   7
BRANCH   1  17
ATOM     17  O   UNL     1      38.548  51.799  60.857  0.00  0.00    +0.000 OA
BRANCH  17  20
ATOM     18  C   UNL     1      41.765  52.171  59.925  0.00  0.00    +0.000 C 
ATOM     19  O   UNL     1      40.451  51.463  59.742  0.00  0.00    +0.000 OA
ATOM     20  C   UNL     1      40.028  52.131  61.093  0.00  0.00    +0.000 C 
ATOM     21  C   UNL     1      40.387  50.600  61.866  0.00  0.00    +0.000 C 
ATOM     22  O   UNL     1      39.859  51.032  63.176  0.00  0.00    +0.000 OA
ATOM     23  C   UNL     1      41.951  51.155  62.226  0.00  0.00    +0.000 C 
ATOM     24  O   UNL     1      42.416  49.816  62.712  0.00  0.00    +0.000 OA
ATOM     25  C   UNL     1      42.658  50.940  60.703  0.00  0.00    +0.000 C 
ATOM     26  O   UNL     1      41.963  49.725  60.238  0.00  0.00    +0.000 OA
BRANCH  18  28
ATOM     27  O   UNL     1      41.720  52.599  57.551  0.00  0.00    +0.000 OA
ATOM     28  C   UNL     1      42.329  51.740  58.450  0.00  0.00    +0.000 C 
ENDBRANCH  18  28
ENDBRANCH  17  20
ENDBRANCH   1  17
TORSDOF 5
ENDMDL
MODEL 5
REMARK VINA RESULT:      -6.9      1.412      2.548
REMARK  Name = 
REMARK  5 active torsions:
REMARK  status: ('A' for Active; 'I' for Inactive)
REMARK    1  A    between atoms: C_2  and  C_3
REMARK    2  A    between atoms: C_5  and  O_6
REMARK    3  A    between atoms: O_6  and  C_7
REMARK    4  A    between atoms: C_10  and  C_11
REMARK    5  A    between atoms: C_12  and  C_13
REMARK                            x       y       z     vdW  Elec       q    Type
REMARK                         _______ _______ _______ _____ _____    ______ ____
ROOT
ATOM      1  C   UNL     1      36.900  53.167  60.682  0.00  0.00    +0.000 A 
ATOM      2  C   UNL     1      35.674  53.794  60.805  0.00  0.00    +0.000 A 
ATOM      3  C   UNL     1      35.309  54.842  59.978  0.00  0.00    +0.000 A 
ATOM      4  C   UNL     1      36.177  55.282  59.000  0.00  0.00    +0.000 A 
ATOM      5  C   UNL     1      37.381  54.684  58.860  0.00  0.00    +0.000 A 
ATOM      6  C   UNL     1      37.736  53.624  59.707  0.00  0.00    +0.000 A 
ENDROOT
BRANCH   4   7
ATOM      7  C   UNL     1      35.830  56.383  58.105  0.00  0.00    +0.000 C 
ATOM      8  C   UNL     1      36.216  56.391  56.842  0.00  0.00    +0.000 C 
BRANCH   8   9
ATOM      9  C   UNL     1      35.865  57.508  55.936  0.00  0.00    +0.000 A 
ATOM     10  C   UNL     1      34.794  58.344  56.187  0.00  0.00    +0.000 A 
ATOM     11  C   UNL     1      34.453  59.391  55.351  0.00  0.00    +0.000 A 
ATOM     12  O   UNL     1      33.366  60.228  55.620  0.00  0.00    +0.000 OA
ATOM     13  C   UNL     1      35.215  59.618  54.208  0.00  0.00    +0.000 A 
ATOM     14  C   UNL     1      36.289  58.798  53.934  0.00  0.00    +0.000 A 
ATOM     15  O   UNL     1      37.037  59.032  52.798  0.00  0.00    +0.000 OA
ATOM     16  C   UNL     1      36.595  57.763  54.797  0.00  0.00    +0.000 A 
ENDBRANCH   8   9
ENDBRANCH   4   7
BRANCH   1  17
ATOM     17  O   UNL     1      37.180  52.144  61.534  0.00  0.00    +0.000 OA
BRANCH  17  20
ATOM     18  C   UNL     1      35.215  51.327  64.147  0.00  0.00    +0.000 C 
ATOM     19  O   UNL     1      36.600  51.490  63.587  0.00  0.00    +0.000 OA
ATOM     20  C   UNL     1      35.905  51.593  62.188  0.00  0.00    +0.000 C 
ATOM     21  C   UNL     1      36.341  49.915  61.940  0.00  0.00    +0.000 C 
ATOM     22  O   UNL     1      35.882  49.907  60.536  0.00  0.00    +0.000 OA
ATOM     23  C   UNL     1      34.819  49.439  62.522  0.00  0.00    +0.000 C 
ATOM     24  O   UNL     1      35.178  47.984  62.546  0.00  0.00    +0.000 OA
ATOM     25  C   UNL     1      35.108  49.623  64.180  0.00  0.00    +0.000 C 
ATOM     26  O   UNL     1      36.528  49.233  64.264  0.00  0.00    +0.000 OA
BRANCH  18  28
ATOM     27  O   UNL     1      36.733  52.332  65.730  0.00  0.00    +0.000 OA
ATOM     28  C   UNL     1      35.716  51.392  65.704  0.00  0.00    +0.000 C 
ENDBRANCH  18  28
ENDBRANCH  17  20
ENDBRANCH   1  17
TORSDOF 5
ENDMDL
MODEL 6
REMARK VINA RESULT:      -6.8      2.035      3.325
REMARK  Name = 
REMARK  5 active torsions:
REMARK  status: ('A' for Active; 'I' for Inactive)
REMARK    1  A    between atoms: C_2  and  C_3
REMARK    2  A    between atoms: C_5  and  O_6
REMARK    3  A    between atoms: O_6  and  C_7
REMARK    4  A    between atoms: C_10  and  C_11
REMARK    5  A    between atoms: C_12  and  C_13
REMARK                            x       y       z     vdW  Elec       q    Type
REMARK                         _______ _______ _______ _____ _____    ______ ____
ROOT
ATOM      1  C   UNL     1      36.830  54.172  60.907  0.00  0.00    +0.000 A 
ATOM      2  C   UNL     1      36.296  53.529  59.806  0.00  0.00    +0.000 A 
ATOM      3  C   UNL     1      36.045  54.204  58.623  0.00  0.00    +0.000 A 
ATOM      4  C   UNL     1      36.331  55.550  58.524  0.00  0.00    +0.000 A 
ATOM      5  C   UNL     1      36.854  56.200  59.589  0.00  0.00    +0.000 A 
ATOM      6  C   UNL     1      37.102  55.502  60.779  0.00  0.00    +0.000 A 
ENDROOT
BRANCH   4   7
ATOM      7  C   UNL     1      36.082  56.299  57.295  0.00  0.00    +0.000 C 
ATOM      8  C   UNL     1      35.473  57.471  57.315  0.00  0.00    +0.000 C 
BRANCH   8   9
ATOM      9  C   UNL     1      35.221  58.229  56.070  0.00  0.00    +0.000 A 
ATOM     10  C   UNL     1      36.104  58.205  55.008  0.00  0.00    +0.000 A 
ATOM     11  C   UNL     1      35.883  58.909  53.837  0.00  0.00    +0.000 A 
ATOM     12  O   UNL     1      36.787  58.873  52.772  0.00  0.00    +0.000 OA
ATOM     13  C   UNL     1      34.725  59.673  53.718  0.00  0.00    +0.000 A 
ATOM     14  C   UNL     1      33.828  59.714  54.763  0.00  0.00    +0.000 A 
ATOM     15  O   UNL     1      32.685  60.477  54.634  0.00  0.00    +0.000 OA
ATOM     16  C   UNL     1      34.087  58.996  55.915  0.00  0.00    +0.000 A 
ENDBRANCH   8   9
ENDBRANCH   4   7
BRANCH   1  17
ATOM     17  O   UNL     1      37.048  53.435  62.030  0.00  0.00    +0.000 OA
BRANCH  17  20
ATOM     18  C   UNL     1      40.407  53.361  61.769  0.00  0.00    +0.000 C 
ATOM     19  O   UNL     1      39.077  52.794  61.357  0.00  0.00    +0.000 OA
ATOM     20  C   UNL     1      38.481  53.614  62.550  0.00  0.00    +0.000 C 
ATOM     21  C   UNL     1      38.479  52.121  63.467  0.00  0.00    +0.000 C 
ATOM     22  O   UNL     1      37.759  52.716  64.611  0.00  0.00    +0.000 OA
ATOM     23  C   UNL     1      39.997  52.523  64.113  0.00  0.00    +0.000 C 
ATOM     24  O   UNL     1      40.180  51.184  64.761  0.00  0.00    +0.000 OA
ATOM     25  C   UNL     1      40.961  52.104  62.786  0.00  0.00    +0.000 C 
ATOM     26  O   UNL     1      40.223  50.942  62.256  0.00  0.00    +0.000 OA
BRANCH  18  28
ATOM     27  O   UNL     1      41.199  53.760  59.527  0.00  0.00    +0.000 OA
ATOM     28  C   UNL     1      41.195  52.749  60.472  0.00  0.00    +0.000 C 
ENDBRANCH  18  28
ENDBRANCH  17  20
ENDBRANCH   1  17
TORSDOF 5
ENDMDL
MODEL 7
REMARK VINA RESULT:      -6.8      2.344      3.175
REMARK  Name = 
REMARK  5 active torsions:
REMARK  status: ('A' for Active; 'I' for Inactive)
REMARK    1  A    between atoms: C_2  and  C_3
REMARK    2  A    between atoms: C_5  and  O_6
REMARK    3  A    between atoms: O_6  and  C_7
REMARK    4  A    between atoms: C_10  and  C_11
REMARK    5  A    between atoms: C_12  and  C_13
REMARK                            x       y       z     vdW  Elec       q    Type
REMARK                         _______ _______ _______ _____ _____    ______ ____
ROOT
ATOM      1  C   UNL     1      37.621  54.765  60.011  0.00  0.00    +0.000 A 
ATOM      2  C   UNL     1      37.320  54.461  58.697  0.00  0.00    +0.000 A 
ATOM      3  C   UNL     1      36.697  55.377  57.866  0.00  0.00    +0.000 A 
ATOM      4  C   UNL     1      36.365  56.627  58.345  0.00  0.00    +0.000 A 
ATOM      5  C   UNL     1      36.651  56.946  59.627  0.00  0.00    +0.000 A 
ATOM      6  C   UNL     1      37.280  56.007  60.456  0.00  0.00    +0.000 A 
ENDROOT
BRANCH   4   7
ATOM      7  C   UNL     1      35.708  57.623  57.501  0.00  0.00    +0.000 C 
ATOM      8  C   UNL     1      34.461  57.997  57.723  0.00  0.00    +0.000 C 
BRANCH   8   9
ATOM      9  C   UNL     1      33.796  59.005  56.868  0.00  0.00    +0.000 A 
ATOM     10  C   UNL     1      32.514  59.452  57.125  0.00  0.00    +0.000 A 
ATOM     11  C   UNL     1      31.880  60.394  56.336  0.00  0.00    +0.000 A 
ATOM     12  O   UNL     1      30.582  60.835  56.612  0.00  0.00    +0.000 OA
ATOM     13  C   UNL     1      32.554  60.917  55.236  0.00  0.00    +0.000 A 
ATOM     14  C   UNL     1      33.834  60.488  54.956  0.00  0.00    +0.000 A 
ATOM     15  O   UNL     1      34.492  61.012  53.862  0.00  0.00    +0.000 OA
ATOM     16  C   UNL     1      34.431  59.545  55.772  0.00  0.00    +0.000 A 
ENDBRANCH   8   9
ENDBRANCH   4   7
BRANCH   1  17
ATOM     17  O   UNL     1      38.236  53.808  60.759  0.00  0.00    +0.000 OA
BRANCH  17  20
ATOM     18  C   UNL     1      38.788  50.664  59.680  0.00  0.00    +0.000 C 
ATOM     19  O   UNL     1      38.423  51.586  60.810  0.00  0.00    +0.000 OA
ATOM     20  C   UNL     1      38.904  52.746  59.876  0.00  0.00    +0.000 C 
ATOM     21  C   UNL     1      40.403  52.742  60.780  0.00  0.00    +0.000 C 
ATOM     22  O   UNL     1      40.925  53.945  60.100  0.00  0.00    +0.000 OA
ATOM     23  C   UNL     1      41.089  51.699  59.629  0.00  0.00    +0.000 C 
ATOM     24  O   UNL     1      42.327  51.465  60.440  0.00  0.00    +0.000 OA
ATOM     25  C   UNL     1      40.380  50.249  60.141  0.00  0.00    +0.000 C 
ATOM     26  O   UNL     1      40.334  50.456  61.600  0.00  0.00    +0.000 OA
BRANCH  18  28
ATOM     27  O   UNL     1      36.867  49.686  60.761  0.00  0.00    +0.000 OA
ATOM     28  C   UNL     1      38.160  49.340  60.409  0.00  0.00    +0.000 C 
ENDBRANCH  18  28
ENDBRANCH  17  20
ENDBRANCH   1  17
TORSDOF 5
ENDMDL
MODEL 8
REMARK VINA RESULT:      -6.7      4.435     10.507
REMARK  Name = 
REMARK  5 active torsions:
REMARK  status: ('A' for Active; 'I' for Inactive)
REMARK    1  A    between atoms: C_2  and  C_3
REMARK    2  A    between atoms: C_5  and  O_6
REMARK    3  A    between atoms: O_6  and  C_7
REMARK    4  A    between atoms: C_10  and  C_11
REMARK    5  A    between atoms: C_12  and  C_13
REMARK                            x       y       z     vdW  Elec       q    Type
REMARK                         _______ _______ _______ _____ _____    ______ ____
ROOT
ATOM      1  C   UNL     1      35.896  50.814  61.979  0.00  0.00    +0.000 A 
ATOM      2  C   UNL     1      35.192  50.296  60.907  0.00  0.00    +0.000 A 
ATOM      3  C   UNL     1      34.277  49.270  61.068  0.00  0.00    +0.000 A 
ATOM      4  C   UNL     1      34.048  48.742  62.321  0.00  0.00    +0.000 A 
ATOM      5  C   UNL     1      34.724  49.232  63.385  0.00  0.00    +0.000 A 
ATOM      6  C   UNL     1      35.649  50.271  63.204  0.00  0.00    +0.000 A 
ENDROOT
BRANCH   4   7
ATOM      7  C   UNL     1      33.091  47.659  62.535  0.00  0.00    +0.000 C 
ATOM      8  C   UNL     1      31.953  47.606  61.866  0.00  0.00    +0.000 C 
BRANCH   8   9
ATOM      9  C   UNL     1      30.984  46.509  62.083  0.00  0.00    +0.000 A 
ATOM     10  C   UNL     1      31.318  45.185  61.872  0.00  0.00    +0.000 A 
ATOM     11  C   UNL     1      30.423  44.149  62.070  0.00  0.00    +0.000 A 
ATOM     12  O   UNL     1      30.779  42.814  61.852  0.00  0.00    +0.000 OA
ATOM     13  C   UNL     1      29.132  44.445  62.499  0.00  0.00    +0.000 A 
ATOM     14  C   UNL     1      28.773  45.757  62.716  0.00  0.00    +0.000 A 
ATOM     15  O   UNL     1      27.490  46.038  63.140  0.00  0.00    +0.000 OA
ATOM     16  C   UNL     1      29.698  46.762  62.507  0.00  0.00    +0.000 A 
ENDBRANCH   8   9
ENDBRANCH   4   7
BRANCH   1  17
ATOM     17  O   UNL     1      36.775  51.824  61.734  0.00  0.00    +0.000 OA
BRANCH  17  20
ATOM     18  C   UNL     1      37.997  52.568  58.684  0.00  0.00    +0.000 C 
ATOM     19  O   UNL     1      38.226  52.465  60.166  0.00  0.00    +0.000 OA
ATOM     20  C   UNL     1      36.672  52.320  60.286  0.00  0.00    +0.000 C 
ATOM     21  C   UNL     1      36.632  54.015  60.727  0.00  0.00    +0.000 C 
ATOM     22  O   UNL     1      35.190  53.992  61.049  0.00  0.00    +0.000 OA
ATOM     23  C   UNL     1      36.342  54.425  59.105  0.00  0.00    +0.000 C 
ATOM     24  O   UNL     1      36.504  55.894  59.349  0.00  0.00    +0.000 OA
ATOM     25  C   UNL     1      37.921  54.266  58.514  0.00  0.00    +0.000 C 
ATOM     26  O   UNL     1      38.705  54.720  59.677  0.00  0.00    +0.000 OA
BRANCH  18  28
ATOM     27  O   UNL     1      40.191  51.808  59.336  0.00  0.00    +0.000 OA
ATOM     28  C   UNL     1      39.594  52.537  58.323  0.00  0.00    +0.000 C 
ENDBRANCH  18  28
ENDBRANCH  17  20
ENDBRANCH   1  17
TORSDOF 5
ENDMDL
MODEL 9
REMARK VINA RESULT:      -6.7      1.377      2.476
REMARK  Name = 
REMARK  5 active torsions:
REMARK  status: ('A' for Active; 'I' for Inactive)
REMARK    1  A    between atoms: C_2  and  C_3
REMARK    2  A    between atoms: C_5  and  O_6
REMARK    3  A    between atoms: O_6  and  C_7
REMARK    4  A    between atoms: C_10  and  C_11
REMARK    5  A    between atoms: C_12  and  C_13
REMARK                            x       y       z     vdW  Elec       q    Type
REMARK                         _______ _______ _______ _____ _____    ______ ____
ROOT
ATOM      1  C   UNL     1      36.459  53.780  60.916  0.00  0.00    +0.000 A 
ATOM      2  C   UNL     1      37.324  54.847  60.752  0.00  0.00    +0.000 A 
ATOM      3  C   UNL     1      37.076  55.845  59.825  0.00  0.00    +0.000 A 
ATOM      4  C   UNL     1      35.944  55.789  59.039  0.00  0.00    +0.000 A 
ATOM      5  C   UNL     1      35.084  54.755  59.181  0.00  0.00    +0.000 A 
ATOM      6  C   UNL     1      35.350  53.752  60.124  0.00  0.00    +0.000 A 
ENDROOT
BRANCH   4   7
ATOM      7  C   UNL     1      35.645  56.822  58.050  0.00  0.00    +0.000 C 
ATOM      8  C   UNL     1      36.029  56.700  56.792  0.00  0.00    +0.000 C 
BRANCH   8   9
ATOM      9  C   UNL     1      35.727  57.746  55.790  0.00  0.00    +0.000 A 
ATOM     10  C   UNL     1      36.588  58.033  54.748  0.00  0.00    +0.000 A 
ATOM     11  C   UNL     1      36.319  59.008  53.804  0.00  0.00    +0.000 A 
ATOM     12  O   UNL     1      37.202  59.284  52.756  0.00  0.00    +0.000 OA
ATOM     13  C   UNL     1      35.134  59.733  53.902  0.00  0.00    +0.000 A 
ATOM     14  C   UNL     1      34.258  59.467  54.932  0.00  0.00    +0.000 A 
ATOM     15  O   UNL     1      33.088  60.193  55.019  0.00  0.00    +0.000 OA
ATOM     16  C   UNL     1      34.565  58.484  55.853  0.00  0.00    +0.000 A 
ENDBRANCH   8   9
ENDBRANCH   4   7
BRANCH   1  17
ATOM     17  O   UNL     1      36.775  52.843  61.851  0.00  0.00    +0.000 OA
BRANCH  17  20
ATOM     18  C   UNL     1      35.059  50.040  62.594  0.00  0.00    +0.000 C 
ATOM     19  O   UNL     1      35.993  51.129  63.045  0.00  0.00    +0.000 OA
ATOM     20  C   UNL     1      36.133  51.487  61.528  0.00  0.00    +0.000 C 
ATOM     21  C   UNL     1      37.650  50.612  61.546  0.00  0.00    +0.000 C 
ATOM     22  O   UNL     1      38.005  51.014  60.170  0.00  0.00    +0.000 OA
ATOM     23  C   UNL     1      36.844  49.216  61.013  0.00  0.00    +0.000 C 
ATOM     24  O   UNL     1      38.043  48.337  61.202  0.00  0.00    +0.000 OA
ATOM     25  C   UNL     1      36.158  48.736  62.485  0.00  0.00    +0.000 C 
ATOM     26  O   UNL     1      37.209  49.148  63.433  0.00  0.00    +0.000 OA
BRANCH  18  28
ATOM     27  O   UNL     1      34.572  50.820  64.824  0.00  0.00    +0.000 OA
ATOM     28  C   UNL     1      34.622  49.631  64.118  0.00  0.00    +0.000 C 
ENDBRANCH  18  28
ENDBRANCH  17  20
ENDBRANCH   1  17
TORSDOF 5
ENDMDL
MODEL 10
REMARK VINA RESULT:      -6.6      2.588     10.334
REMARK  Name = 
REMARK  5 active torsions:
REMARK  status: ('A' for Active; 'I' for Inactive)
REMARK    1  A    between atoms: C_2  and  C_3
REMARK    2  A    between atoms: C_5  and  O_6
REMARK    3  A    between atoms: O_6  and  C_7
REMARK    4  A    between atoms: C_10  and  C_11
REMARK    5  A    between atoms: C_12  and  C_13
REMARK                            x       y       z     vdW  Elec       q    Type
REMARK                         _______ _______ _______ _____ _____    ______ ____
ROOT
ATOM      1  C   UNL     1      35.093  57.784  57.510  0.00  0.00    +0.000 A 
ATOM      2  C   UNL     1      34.458  57.428  58.686  0.00  0.00    +0.000 A 
ATOM      3  C   UNL     1      34.760  56.247  59.343  0.00  0.00    +0.000 A 
ATOM      4  C   UNL     1      35.715  55.396  58.827  0.00  0.00    +0.000 A 
ATOM      5  C   UNL     1      36.348  55.724  57.679  0.00  0.00    +0.000 A 
ATOM      6  C   UNL     1      36.031  56.923  57.025  0.00  0.00    +0.000 A 
ENDROOT
BRANCH   4   7
ATOM      7  C   UNL     1      36.063  54.142  59.490  0.00  0.00    +0.000 C 
ATOM      8  C   UNL     1      36.357  53.056  58.796  0.00  0.00    +0.000 C 
BRANCH   8   9
ATOM      9  C   UNL     1      36.710  51.786  59.468  0.00  0.00    +0.000 A 
ATOM     10  C   UNL     1      35.791  51.075  60.217  0.00  0.00    +0.000 A 
ATOM     11  C   UNL     1      36.106  49.886  60.850  0.00  0.00    +0.000 A 
ATOM     12  O   UNL     1      35.163  49.179  61.603  0.00  0.00    +0.000 OA
ATOM     13  C   UNL     1      37.398  49.380  60.734  0.00  0.00    +0.000 A 
ATOM     14  C   UNL     1      38.333  50.070  59.993  0.00  0.00    +0.000 A 
ATOM     15  O   UNL     1      39.610  49.560  59.886  0.00  0.00    +0.000 OA
ATOM     16  C   UNL     1      37.977  51.254  59.376  0.00  0.00    +0.000 A 
ENDBRANCH   8   9
ENDBRANCH   4   7
BRANCH   1  17
ATOM     17  O   UNL     1      34.739  58.963  56.929  0.00  0.00    +0.000 OA
BRANCH  17  20
ATOM     18  C   UNL     1      37.522  60.436  55.727  0.00  0.00    +0.000 C 
ATOM     19  O   UNL     1      36.416  60.424  56.745  0.00  0.00    +0.000 OA
ATOM     20  C   UNL     1      35.726  59.363  55.823  0.00  0.00    +0.000 C 
ATOM     21  C   UNL     1      34.725  60.665  55.214  0.00  0.00    +0.000 C 
ATOM     22  O   UNL     1      33.869  59.759  54.420  0.00  0.00    +0.000 OA
ATOM     23  C   UNL     1      35.812  60.891  53.928  0.00  0.00    +0.000 C 
ATOM     24  O   UNL     1      35.140  62.145  53.458  0.00  0.00    +0.000 OA
ATOM     25  C   UNL     1      37.015  61.747  54.756  0.00  0.00    +0.000 C 
ATOM     26  O   UNL     1      36.202  62.529  55.707  0.00  0.00    +0.000 OA
BRANCH  18  28
ATOM     27  O   UNL     1      39.663  60.675  56.811  0.00  0.00    +0.000 OA
ATOM     28  C   UNL     1      38.494  61.394  56.631  0.00  0.00    +0.000 C 
ENDBRANCH  18  28
ENDBRANCH  17  20
ENDBRANCH   1  17
TORSDOF 5
ENDMDL
