MODEL 1
REMARK VINA RESULT:      -7.7      0.000      0.000
REMARK  Name = 
REMARK  5 active torsions:
REMARK  status: ('A' for Active; 'I' for Inactive)
REMARK    1  A    between atoms: C_2  and  C_3
REMARK    2  A    between atoms: C_5  and  O_6
REMARK    3  A    between atoms: O_6  and  C_7
REMARK    4  A    between atoms: C_12  and  C_13
REMARK    5  A    between atoms: C_14  and  C_15
REMARK                            x       y       z     vdW  Elec       q    Type
REMARK                         _______ _______ _______ _____ _____    ______ ____
ROOT
ATOM      1  C   UNL     1      37.099  54.450  60.122  0.00  0.00    +0.000 A 
ATOM      2  C   UNL     1      35.816  54.072  60.544  0.00  0.00    +0.000 A 
ATOM      3  C   UNL     1      34.681  54.564  59.970  0.00  0.00    +0.000 A 
ATOM      4  O   UNL     1      33.464  54.095  60.504  0.00  0.00    +0.000 OA
ATOM      5  C   UNL     1      34.768  55.442  58.963  0.00  0.00    +0.000 A 
ATOM      6  C   UNL     1      36.059  55.860  58.496  0.00  0.00    +0.000 A 
ATOM      7  C   UNL     1      37.207  55.333  59.115  0.00  0.00    +0.000 A 
ENDROOT
BRANCH   6   8
ATOM      8  C   UNL     1      35.981  56.677  57.378  0.00  0.00    +0.000 C 
ATOM      9  C   UNL     1      36.417  56.673  56.194  0.00  0.00    +0.000 C 
BRANCH   9  10
ATOM     10  C   UNL     1      36.019  57.822  55.336  0.00  0.00    +0.000 A 
ATOM     11  C   UNL     1      34.937  58.588  55.556  0.00  0.00    +0.000 A 
ATOM     12  C   UNL     1      34.634  59.784  54.904  0.00  0.00    +0.000 A 
ATOM     13  C   UNL     1      35.575  60.205  53.923  0.00  0.00    +0.000 A 
ATOM     14  O   UNL     1      35.300  61.398  53.273  0.00  0.00    +0.000 OA
ATOM     15  C   UNL     1      36.653  59.448  53.673  0.00  0.00    +0.000 A 
ATOM     16  C   UNL     1      36.916  58.253  54.355  0.00  0.00    +0.000 A 
ENDBRANCH   9  10
ENDBRANCH   6   8
BRANCH   1  17
ATOM     17  O   UNL     1      38.219  53.904  60.745  0.00  0.00    +0.000 OA
BRANCH  17  20
ATOM     18  C   UNL     1      38.864  50.457  60.198  0.00  0.00    +0.000 C 
ATOM     19  O   UNL     1      38.291  51.670  60.839  0.00  0.00    +0.000 OA
ATOM     20  C   UNL     1      38.929  52.736  59.987  0.00  0.00    +0.000 C 
ATOM     21  C   UNL     1      40.430  52.894  60.760  0.00  0.00    +0.000 C 
ATOM     22  O   UNL     1      40.935  53.874  59.721  0.00  0.00    +0.000 OA
ATOM     23  C   UNL     1      41.024  51.544  59.810  0.00  0.00    +0.000 C 
ATOM     24  O   UNL     1      42.358  51.647  60.527  0.00  0.00    +0.000 OA
ATOM     25  C   UNL     1      40.390  50.484  61.001  0.00  0.00    +0.000 C 
ATOM     26  O   UNL     1      40.891  49.268  60.263  0.00  0.00    +0.000 OA
BRANCH  18  28
ATOM     27  O   UNL     1      37.637  48.456  60.817  0.00  0.00    +0.000 OA
ATOM     28  C   UNL     1      38.251  49.495  61.475  0.00  0.00    +0.000 C 
ENDBRANCH  18  28
ENDBRANCH  17  20
ENDBRANCH   1  17
TORSDOF 5
ENDMDL
MODEL 2
REMARK VINA RESULT:      -7.6      2.516      9.175
REMARK  Name = 
REMARK  5 active torsions:
REMARK  status: ('A' for Active; 'I' for Inactive)
REMARK    1  A    between atoms: C_2  and  C_3
REMARK    2  A    between atoms: C_5  and  O_6
REMARK    3  A    between atoms: O_6  and  C_7
REMARK    4  A    between atoms: C_12  and  C_13
REMARK    5  A    between atoms: C_14  and  C_15
REMARK                            x       y       z     vdW  Elec       q    Type
REMARK                         _______ _______ _______ _____ _____    ______ ____
ROOT
ATOM      1  C   UNL     1      35.556  56.611  58.833  0.00  0.00    +0.000 A 
ATOM      2  C   UNL     1      34.476  55.935  59.419  0.00  0.00    +0.000 A 
ATOM      3  C   UNL     1      34.531  54.614  59.751  0.00  0.00    +0.000 A 
ATOM      4  O   UNL     1      33.366  54.071  60.329  0.00  0.00    +0.000 OA
ATOM      5  C   UNL     1      35.648  53.914  59.519  0.00  0.00    +0.000 A 
ATOM      6  C   UNL     1      36.780  54.560  58.921  0.00  0.00    +0.000 A 
ATOM      7  C   UNL     1      36.685  55.924  58.589  0.00  0.00    +0.000 A 
ENDROOT
BRANCH   6   8
ATOM      8  C   UNL     1      37.892  53.734  58.855  0.00  0.00    +0.000 C 
ATOM      9  C   UNL     1      38.126  52.496  58.792  0.00  0.00    +0.000 C 
BRANCH   9  10
ATOM     10  C   UNL     1      39.557  52.094  58.717  0.00  0.00    +0.000 A 
ATOM     11  C   UNL     1      40.458  52.665  57.899  0.00  0.00    +0.000 A 
ATOM     12  C   UNL     1      41.838  52.461  57.932  0.00  0.00    +0.000 A 
ATOM     13  C   UNL     1      42.303  51.561  58.933  0.00  0.00    +0.000 A 
ATOM     14  O   UNL     1      43.673  51.355  58.993  0.00  0.00    +0.000 OA
ATOM     15  C   UNL     1      41.421  50.966  59.748  0.00  0.00    +0.000 A 
ATOM     16  C   UNL     1      40.043  51.203  59.679  0.00  0.00    +0.000 A 
ENDBRANCH   9  10
ENDBRANCH   6   8
BRANCH   1  17
ATOM     17  O   UNL     1      35.437  57.965  58.524  0.00  0.00    +0.000 OA
BRANCH  17  20
ATOM     18  C   UNL     1      35.176  58.752  55.072  0.00  0.00    +0.000 C 
ATOM     19  O   UNL     1      35.827  58.444  56.374  0.00  0.00    +0.000 OA
ATOM     20  C   UNL     1      34.606  58.310  57.246  0.00  0.00    +0.000 C 
ATOM     21  C   UNL     1      34.325  59.937  57.638  0.00  0.00    +0.000 C 
ATOM     22  O   UNL     1      33.047  59.604  58.379  0.00  0.00    +0.000 OA
ATOM     23  C   UNL     1      33.437  60.111  56.135  0.00  0.00    +0.000 C 
ATOM     24  O   UNL     1      33.218  61.578  56.453  0.00  0.00    +0.000 OA
ATOM     25  C   UNL     1      34.925  60.436  55.345  0.00  0.00    +0.000 C 
ATOM     26  O   UNL     1      34.239  60.631  54.016  0.00  0.00    +0.000 OA
BRANCH  18  28
ATOM     27  O   UNL     1      36.664  58.510  53.170  0.00  0.00    +0.000 OA
ATOM     28  C   UNL     1      36.704  59.126  54.398  0.00  0.00    +0.000 C 
ENDBRANCH  18  28
ENDBRANCH  17  20
ENDBRANCH   1  17
TORSDOF 5
ENDMDL
MODEL 3
REMARK VINA RESULT:      -7.5      3.707      5.716
REMARK  Name = 
REMARK  5 active torsions:
REMARK  status: ('A' for Active; 'I' for Inactive)
REMARK    1  A    between atoms: C_2  and  C_3
REMARK    2  A    between atoms: C_5  and  O_6
REMARK    3  A    between atoms: O_6  and  C_7
REMARK    4  A    between atoms: C_12  and  C_13
REMARK    5  A    between atoms: C_14  and  C_15
REMARK                            x       y       z     vdW  Elec       q    Type
REMARK                         _______ _______ _______ _____ _____    ______ ____
ROOT
ATOM      1  C   UNL     1      36.016  57.071  57.635  0.00  0.00    +0.000 A 
ATOM      2  C   UNL     1      36.484  57.236  56.324  0.00  0.00    +0.000 A 
ATOM      3  C   UNL     1      35.802  57.954  55.387  0.00  0.00    +0.000 A 
ATOM      4  O   UNL     1      36.394  58.029  54.111  0.00  0.00    +0.000 OA
ATOM      5  C   UNL     1      34.639  58.535  55.708  0.00  0.00    +0.000 A 
ATOM      6  C   UNL     1      34.118  58.395  57.038  0.00  0.00    +0.000 A 
ATOM      7  C   UNL     1      34.849  57.643  57.976  0.00  0.00    +0.000 A 
ENDROOT
BRANCH   6   8
ATOM      8  C   UNL     1      32.972  59.149  57.243  0.00  0.00    +0.000 C 
ATOM      9  C   UNL     1      32.399  60.132  56.700  0.00  0.00    +0.000 C 
BRANCH   9  10
ATOM     10  C   UNL     1      31.119  60.577  57.316  0.00  0.00    +0.000 A 
ATOM     11  C   UNL     1      29.918  60.465  56.722  0.00  0.00    +0.000 A 
ATOM     12  C   UNL     1      28.681  60.682  57.330  0.00  0.00    +0.000 A 
ATOM     13  C   UNL     1      28.728  61.055  58.703  0.00  0.00    +0.000 A 
ATOM     14  O   UNL     1      27.508  61.261  59.331  0.00  0.00    +0.000 OA
ATOM     15  C   UNL     1      29.914  61.190  59.312  0.00  0.00    +0.000 A 
ATOM     16  C   UNL     1      31.132  60.959  58.660  0.00  0.00    +0.000 A 
ENDBRANCH   9  10
ENDBRANCH   6   8
BRANCH   1  17
ATOM     17  O   UNL     1      36.766  56.330  58.547  0.00  0.00    +0.000 OA
BRANCH  17  20
ATOM     18  C   UNL     1      35.113  53.188  58.564  0.00  0.00    +0.000 C 
ATOM     19  O   UNL     1      35.295  54.654  58.734  0.00  0.00    +0.000 OA
ATOM     20  C   UNL     1      36.747  54.778  58.355  0.00  0.00    +0.000 C 
ATOM     21  C   UNL     1      37.488  54.397  59.833  0.00  0.00    +0.000 C 
ATOM     22  O   UNL     1      38.874  54.455  59.227  0.00  0.00    +0.000 OA
ATOM     23  C   UNL     1      37.353  52.697  59.422  0.00  0.00    +0.000 C 
ATOM     24  O   UNL     1      37.974  52.340  60.761  0.00  0.00    +0.000 OA
ATOM     25  C   UNL     1      35.770  52.707  60.084  0.00  0.00    +0.000 C 
ATOM     26  O   UNL     1      35.580  51.239  59.792  0.00  0.00    +0.000 OA
BRANCH  18  28
ATOM     27  O   UNL     1      32.747  52.672  58.401  0.00  0.00    +0.000 OA
ATOM     28  C   UNL     1      33.574  53.295  59.305  0.00  0.00    +0.000 C 
ENDBRANCH  18  28
ENDBRANCH  17  20
ENDBRANCH   1  17
TORSDOF 5
ENDMDL
MODEL 4
REMARK VINA RESULT:      -7.4      1.789      2.295
REMARK  Name = 
REMARK  5 active torsions:
REMARK  status: ('A' for Active; 'I' for Inactive)
REMARK    1  A    between atoms: C_2  and  C_3
REMARK    2  A    between atoms: C_5  and  O_6
REMARK    3  A    between atoms: O_6  and  C_7
REMARK    4  A    between atoms: C_12  and  C_13
REMARK    5  A    between atoms: C_14  and  C_15
REMARK                            x       y       z     vdW  Elec       q    Type
REMARK                         _______ _______ _______ _____ _____    ______ ____
ROOT
ATOM      1  C   UNL     1      38.097  52.996  59.693  0.00  0.00    +0.000 A 
ATOM      2  C   UNL     1      37.070  52.042  59.649  0.00  0.00    +0.000 A 
ATOM      3  C   UNL     1      35.881  52.272  59.023  0.00  0.00    +0.000 A 
ATOM      4  O   UNL     1      34.944  51.220  59.066  0.00  0.00    +0.000 OA
ATOM      5  C   UNL     1      35.662  53.447  58.419  0.00  0.00    +0.000 A 
ATOM      6  C   UNL     1      36.681  54.455  58.437  0.00  0.00    +0.000 A 
ATOM      7  C   UNL     1      37.894  54.182  59.095  0.00  0.00    +0.000 A 
ENDROOT
BRANCH   6   8
ATOM      8  C   UNL     1      36.348  55.563  57.671  0.00  0.00    +0.000 C 
ATOM      9  C   UNL     1      35.820  56.693  57.856  0.00  0.00    +0.000 C 
BRANCH   9  10
ATOM     10  C   UNL     1      35.695  57.571  56.660  0.00  0.00    +0.000 A 
ATOM     11  C   UNL     1      36.418  57.423  55.537  0.00  0.00    +0.000 A 
ATOM     12  C   UNL     1      36.201  58.088  54.330  0.00  0.00    +0.000 A 
ATOM     13  C   UNL     1      35.107  58.999  54.318  0.00  0.00    +0.000 A 
ATOM     14  O   UNL     1      34.865  59.660  53.123  0.00  0.00    +0.000 OA
ATOM     15  C   UNL     1      34.382  59.177  55.431  0.00  0.00    +0.000 A 
ATOM     16  C   UNL     1      34.637  58.484  56.622  0.00  0.00    +0.000 A 
ENDBRANCH   9  10
ENDBRANCH   6   8
BRANCH   1  17
ATOM     17  O   UNL     1      39.292  52.694  60.343  0.00  0.00    +0.000 OA
BRANCH  17  20
ATOM     18  C   UNL     1      41.220  49.717  60.486  0.00  0.00    +0.000 C 
ATOM     19  O   UNL     1      40.392  50.851  60.975  0.00  0.00    +0.000 OA
ATOM     20  C   UNL     1      40.178  51.589  59.679  0.00  0.00    +0.000 C 
ATOM     21  C   UNL     1      41.602  52.509  59.607  0.00  0.00    +0.000 C 
ATOM     22  O   UNL     1      41.256  53.054  58.237  0.00  0.00    +0.000 OA
ATOM     23  C   UNL     1      42.412  51.133  58.882  0.00  0.00    +0.000 C 
ATOM     24  O   UNL     1      43.704  51.929  58.852  0.00  0.00    +0.000 OA
ATOM     25  C   UNL     1      42.733  50.545  60.461  0.00  0.00    +0.000 C 
ATOM     26  O   UNL     1      43.472  49.345  59.923  0.00  0.00    +0.000 OA
BRANCH  18  28
ATOM     27  O   UNL     1      41.167  47.933  62.131  0.00  0.00    +0.000 OA
ATOM     28  C   UNL     1      41.541  49.256  62.102  0.00  0.00    +0.000 C 
ENDBRANCH  18  28
ENDBRANCH  17  20
ENDBRANCH   1  17
TORSDOF 5
ENDMDL
MODEL 5
REMARK VINA RESULT:      -7.4      2.613      8.941
REMARK  Name = 
REMARK  5 active torsions:
REMARK  status: ('A' for Active; 'I' for Inactive)
REMARK    1  A    between atoms: C_2  and  C_3
REMARK    2  A    between atoms: C_5  and  O_6
REMARK    3  A    between atoms: O_6  and  C_7
REMARK    4  A    between atoms: C_12  and  C_13
REMARK    5  A    between atoms: C_14  and  C_15
REMARK                            x       y       z     vdW  Elec       q    Type
REMARK                         _______ _______ _______ _____ _____    ______ ____
ROOT
ATOM      1  C   UNL     1      35.613  55.893  58.506  0.00  0.00    +0.000 A 
ATOM      2  C   UNL     1      34.701  55.262  59.364  0.00  0.00    +0.000 A 
ATOM      3  C   UNL     1      34.988  54.097  60.010  0.00  0.00    +0.000 A 
ATOM      4  O   UNL     1      33.970  53.580  60.837  0.00  0.00    +0.000 OA
ATOM      5  C   UNL     1      36.180  53.513  59.837  0.00  0.00    +0.000 A 
ATOM      6  C   UNL     1      37.147  54.119  58.968  0.00  0.00    +0.000 A 
ATOM      7  C   UNL     1      36.814  55.320  58.316  0.00  0.00    +0.000 A 
ENDROOT
BRANCH   6   8
ATOM      8  C   UNL     1      38.367  53.459  58.986  0.00  0.00    +0.000 C 
ATOM      9  C   UNL     1      39.216  53.055  58.145  0.00  0.00    +0.000 C 
BRANCH   9  10
ATOM     10  C   UNL     1      40.429  52.389  58.694  0.00  0.00    +0.000 A 
ATOM     11  C   UNL     1      40.410  51.500  59.702  0.00  0.00    +0.000 A 
ATOM     12  C   UNL     1      41.482  50.709  60.115  0.00  0.00    +0.000 A 
ATOM     13  C   UNL     1      42.691  50.880  59.384  0.00  0.00    +0.000 A 
ATOM     14  O   UNL     1      43.765  50.092  59.769  0.00  0.00    +0.000 OA
ATOM     15  C   UNL     1      42.739  51.773  58.386  0.00  0.00    +0.000 A 
ATOM     16  C   UNL     1      41.635  52.546  58.005  0.00  0.00    +0.000 A 
ENDBRANCH   9  10
ENDBRANCH   6   8
BRANCH   1  17
ATOM     17  O   UNL     1      35.261  57.088  57.881  0.00  0.00    +0.000 OA
BRANCH  17  20
ATOM     18  C   UNL     1      37.198  60.031  57.447  0.00  0.00    +0.000 C 
ATOM     19  O   UNL     1      36.116  59.153  57.968  0.00  0.00    +0.000 OA
ATOM     20  C   UNL     1      36.428  57.887  57.215  0.00  0.00    +0.000 C 
ATOM     21  C   UNL     1      35.632  58.194  55.748  0.00  0.00    +0.000 C 
ATOM     22  O   UNL     1      36.152  56.915  55.124  0.00  0.00    +0.000 OA
ATOM     23  C   UNL     1      37.052  59.067  55.200  0.00  0.00    +0.000 C 
ATOM     24  O   UNL     1      36.334  59.387  53.901  0.00  0.00    +0.000 OA
ATOM     25  C   UNL     1      36.430  60.471  55.966  0.00  0.00    +0.000 C 
ATOM     26  O   UNL     1      37.603  61.304  55.512  0.00  0.00    +0.000 OA
BRANCH  18  28
ATOM     27  O   UNL     1      37.486  61.952  58.902  0.00  0.00    +0.000 OA
ATOM     28  C   UNL     1      36.457  61.383  58.190  0.00  0.00    +0.000 C 
ENDBRANCH  18  28
ENDBRANCH  17  20
ENDBRANCH   1  17
TORSDOF 5
ENDMDL
MODEL 6
REMARK VINA RESULT:      -7.3      1.326      2.699
REMARK  Name = 
REMARK  5 active torsions:
REMARK  status: ('A' for Active; 'I' for Inactive)
REMARK    1  A    between atoms: C_2  and  C_3
REMARK    2  A    between atoms: C_5  and  O_6
REMARK    3  A    between atoms: O_6  and  C_7
REMARK    4  A    between atoms: C_12  and  C_13
REMARK    5  A    between atoms: C_14  and  C_15
REMARK                            x       y       z     vdW  Elec       q    Type
REMARK                         _______ _______ _______ _____ _____    ______ ____
ROOT
ATOM      1  C   UNL     1      36.601  53.312  58.854  0.00  0.00    +0.000 A 
ATOM      2  C   UNL     1      35.434  53.176  59.620  0.00  0.00    +0.000 A 
ATOM      3  C   UNL     1      34.519  54.178  59.746  0.00  0.00    +0.000 A 
ATOM      4  O   UNL     1      33.398  53.897  60.552  0.00  0.00    +0.000 OA
ATOM      5  C   UNL     1      34.718  55.346  59.121  0.00  0.00    +0.000 A 
ATOM      6  C   UNL     1      35.897  55.534  58.326  0.00  0.00    +0.000 A 
ATOM      7  C   UNL     1      36.820  54.477  58.223  0.00  0.00    +0.000 A 
ENDROOT
BRANCH   6   8
ATOM      8  C   UNL     1      35.898  56.747  57.654  0.00  0.00    +0.000 C 
ATOM      9  C   UNL     1      36.419  57.887  57.799  0.00  0.00    +0.000 C 
BRANCH   9  10
ATOM     10  C   UNL     1      36.116  58.894  56.745  0.00  0.00    +0.000 A 
ATOM     11  C   UNL     1      36.978  59.842  56.338  0.00  0.00    +0.000 A 
ATOM     12  C   UNL     1      36.816  60.673  55.229  0.00  0.00    +0.000 A 
ATOM     13  C   UNL     1      35.621  60.476  54.481  0.00  0.00    +0.000 A 
ATOM     14  O   UNL     1      35.448  61.282  53.367  0.00  0.00    +0.000 OA
ATOM     15  C   UNL     1      34.739  59.548  54.878  0.00  0.00    +0.000 A 
ATOM     16  C   UNL     1      34.944  58.734  55.999  0.00  0.00    +0.000 A 
ENDBRANCH   9  10
ENDBRANCH   6   8
BRANCH   1  17
ATOM     17  O   UNL     1      37.493  52.245  58.761  0.00  0.00    +0.000 OA
BRANCH  17  20
ATOM     18  C   UNL     1      40.905  52.382  59.730  0.00  0.00    +0.000 C 
ATOM     19  O   UNL     1      39.726  52.376  58.825  0.00  0.00    +0.000 OA
ATOM     20  C   UNL     1      38.625  52.198  59.838  0.00  0.00    +0.000 C 
ATOM     21  C   UNL     1      38.641  50.511  60.020  0.00  0.00    +0.000 C 
ATOM     22  O   UNL     1      37.599  50.556  61.118  0.00  0.00    +0.000 OA
ATOM     23  C   UNL     1      39.927  50.685  61.200  0.00  0.00    +0.000 C 
ATOM     24  O   UNL     1      39.982  49.175  61.340  0.00  0.00    +0.000 OA
ATOM     25  C   UNL     1      41.055  50.673  59.908  0.00  0.00    +0.000 C 
ATOM     26  O   UNL     1      42.224  50.794  60.855  0.00  0.00    +0.000 OA
BRANCH  18  28
ATOM     27  O   UNL     1      42.720  53.425  58.501  0.00  0.00    +0.000 OA
ATOM     28  C   UNL     1      41.945  52.296  58.374  0.00  0.00    +0.000 C 
ENDBRANCH  18  28
ENDBRANCH  17  20
ENDBRANCH   1  17
TORSDOF 5
ENDMDL
MODEL 7
REMARK VINA RESULT:      -7.2      2.941      4.480
REMARK  Name = 
REMARK  5 active torsions:
REMARK  status: ('A' for Active; 'I' for Inactive)
REMARK    1  A    between atoms: C_2  and  C_3
REMARK    2  A    between atoms: C_5  and  O_6
REMARK    3  A    between atoms: O_6  and  C_7
REMARK    4  A    between atoms: C_12  and  C_13
REMARK    5  A    between atoms: C_14  and  C_15
REMARK                            x       y       z     vdW  Elec       q    Type
REMARK                         _______ _______ _______ _____ _____    ______ ____
ROOT
ATOM      1  C   UNL     1      35.918  52.546  60.515  0.00  0.00    +0.000 A 
ATOM      2  C   UNL     1      37.153  51.957  60.206  0.00  0.00    +0.000 A 
ATOM      3  C   UNL     1      37.954  52.417  59.204  0.00  0.00    +0.000 A 
ATOM      4  O   UNL     1      39.164  51.721  59.009  0.00  0.00    +0.000 OA
ATOM      5  C   UNL     1      37.571  53.472  58.474  0.00  0.00    +0.000 A 
ATOM      6  C   UNL     1      36.316  54.109  58.751  0.00  0.00    +0.000 A 
ATOM      7  C   UNL     1      35.514  53.604  59.790  0.00  0.00    +0.000 A 
ENDROOT
BRANCH   6   8
ATOM      8  C   UNL     1      36.119  55.251  57.989  0.00  0.00    +0.000 C 
ATOM      9  C   UNL     1      35.936  56.482  58.194  0.00  0.00    +0.000 C 
BRANCH   9  10
ATOM     10  C   UNL     1      35.792  57.342  56.987  0.00  0.00    +0.000 A 
ATOM     11  C   UNL     1      36.452  57.139  55.834  0.00  0.00    +0.000 A 
ATOM     12  C   UNL     1      36.206  57.790  54.625  0.00  0.00    +0.000 A 
ATOM     13  C   UNL     1      35.156  58.750  54.645  0.00  0.00    +0.000 A 
ATOM     14  O   UNL     1      34.885  59.399  53.450  0.00  0.00    +0.000 OA
ATOM     15  C   UNL     1      34.495  58.983  55.788  0.00  0.00    +0.000 A 
ATOM     16  C   UNL     1      34.776  58.302  56.980  0.00  0.00    +0.000 A 
ENDBRANCH   9  10
ENDBRANCH   6   8
BRANCH   1  17
ATOM     17  O   UNL     1      35.149  52.031  61.557  0.00  0.00    +0.000 OA
BRANCH  17  20
ATOM     18  C   UNL     1      35.107  48.708  62.802  0.00  0.00    +0.000 C 
ATOM     19  O   UNL     1      34.623  49.926  62.101  0.00  0.00    +0.000 OA
ATOM     20  C   UNL     1      35.783  50.851  62.363  0.00  0.00    +0.000 C 
ATOM     21  C   UNL     1      35.373  51.434  63.903  0.00  0.00    +0.000 C 
ATOM     22  O   UNL     1      36.667  52.210  64.024  0.00  0.00    +0.000 OA
ATOM     23  C   UNL     1      36.130  50.015  64.604  0.00  0.00    +0.000 C 
ATOM     24  O   UNL     1      35.730  50.503  65.984  0.00  0.00    +0.000 OA
ATOM     25  C   UNL     1      34.648  49.176  64.398  0.00  0.00    +0.000 C 
ATOM     26  O   UNL     1      35.211  47.920  65.015  0.00  0.00    +0.000 OA
BRANCH  18  28
ATOM     27  O   UNL     1      33.868  46.672  62.343  0.00  0.00    +0.000 OA
ATOM     28  C   UNL     1      33.567  47.986  62.610  0.00  0.00    +0.000 C 
ENDBRANCH  18  28
ENDBRANCH  17  20
ENDBRANCH   1  17
TORSDOF 5
ENDMDL
MODEL 8
REMARK VINA RESULT:      -7.2      5.689     10.263
REMARK  Name = 
REMARK  5 active torsions:
REMARK  status: ('A' for Active; 'I' for Inactive)
REMARK    1  A    between atoms: C_2  and  C_3
REMARK    2  A    between atoms: C_5  and  O_6
REMARK    3  A    between atoms: O_6  and  C_7
REMARK    4  A    between atoms: C_12  and  C_13
REMARK    5  A    between atoms: C_14  and  C_15
REMARK                            x       y       z     vdW  Elec       q    Type
REMARK                         _______ _______ _______ _____ _____    ______ ____
ROOT
ATOM      1  C   UNL     1      35.743  49.214  62.064  0.00  0.00    +0.000 A 
ATOM      2  C   UNL     1      36.598  48.121  62.263  0.00  0.00    +0.000 A 
ATOM      3  C   UNL     1      36.135  46.864  62.512  0.00  0.00    +0.000 A 
ATOM      4  O   UNL     1      37.114  45.867  62.696  0.00  0.00    +0.000 OA
ATOM      5  C   UNL     1      34.816  46.638  62.572  0.00  0.00    +0.000 A 
ATOM      6  C   UNL     1      33.900  47.724  62.375  0.00  0.00    +0.000 A 
ATOM      7  C   UNL     1      34.416  49.008  62.123  0.00  0.00    +0.000 A 
ENDROOT
BRANCH   6   8
ATOM      8  C   UNL     1      32.578  47.307  62.351  0.00  0.00    +0.000 C 
ATOM      9  C   UNL     1      31.944  46.246  62.103  0.00  0.00    +0.000 C 
BRANCH   9  10
ATOM     10  C   UNL     1      30.463  46.308  62.244  0.00  0.00    +0.000 A 
ATOM     11  C   UNL     1      29.712  45.317  62.755  0.00  0.00    +0.000 A 
ATOM     12  C   UNL     1      28.360  45.404  63.087  0.00  0.00    +0.000 A 
ATOM     13  C   UNL     1      27.748  46.667  62.853  0.00  0.00    +0.000 A 
ATOM     14  O   UNL     1      26.408  46.779  63.190  0.00  0.00    +0.000 OA
ATOM     15  C   UNL     1      28.473  47.665  62.327  0.00  0.00    +0.000 A 
ATOM     16  C   UNL     1      29.830  47.532  62.010  0.00  0.00    +0.000 A 
ENDBRANCH   9  10
ENDBRANCH   6   8
BRANCH   1  17
ATOM     17  O   UNL     1      36.281  50.474  61.806  0.00  0.00    +0.000 OA
BRANCH  17  20
ATOM     18  C   UNL     1      38.915  51.060  59.500  0.00  0.00    +0.000 C 
ATOM     19  O   UNL     1      38.250  50.855  60.814  0.00  0.00    +0.000 OA
ATOM     20  C   UNL     1      36.822  50.708  60.357  0.00  0.00    +0.000 C 
ATOM     21  C   UNL     1      36.362  52.338  60.247  0.00  0.00    +0.000 C 
ATOM     22  O   UNL     1      35.003  51.983  59.682  0.00  0.00    +0.000 OA
ATOM     23  C   UNL     1      37.048  52.386  58.633  0.00  0.00    +0.000 C 
ATOM     24  O   UNL     1      36.682  53.857  58.539  0.00  0.00    +0.000 OA
ATOM     25  C   UNL     1      38.571  52.742  59.338  0.00  0.00    +0.000 C 
ATOM     26  O   UNL     1      39.236  52.831  57.988  0.00  0.00    +0.000 OA
BRANCH  18  28
ATOM     27  O   UNL     1      41.316  50.730  59.638  0.00  0.00    +0.000 OA
ATOM     28  C   UNL     1      40.370  51.473  60.303  0.00  0.00    +0.000 C 
ENDBRANCH  18  28
ENDBRANCH  17  20
ENDBRANCH   1  17
TORSDOF 5
ENDMDL
MODEL 9
REMARK VINA RESULT:      -7.1     15.299     18.968
REMARK  Name = 
REMARK  5 active torsions:
REMARK  status: ('A' for Active; 'I' for Inactive)
REMARK    1  A    between atoms: C_2  and  C_3
REMARK    2  A    between atoms: C_5  and  O_6
REMARK    3  A    between atoms: O_6  and  C_7
REMARK    4  A    between atoms: C_12  and  C_13
REMARK    5  A    between atoms: C_14  and  C_15
REMARK                            x       y       z     vdW  Elec       q    Type
REMARK                         _______ _______ _______ _____ _____    ______ ____
ROOT
ATOM      1  C   UNL     1      25.500  39.953  61.129  0.00  0.00    +0.000 A 
ATOM      2  C   UNL     1      26.397  39.006  61.642  0.00  0.00    +0.000 A 
ATOM      3  C   UNL     1      27.601  39.353  62.180  0.00  0.00    +0.000 A 
ATOM      4  O   UNL     1      28.398  38.291  62.652  0.00  0.00    +0.000 OA
ATOM      5  C   UNL     1      27.962  40.641  62.232  0.00  0.00    +0.000 A 
ATOM      6  C   UNL     1      27.079  41.647  61.719  0.00  0.00    +0.000 A 
ATOM      7  C   UNL     1      25.846  41.251  61.169  0.00  0.00    +0.000 A 
ENDROOT
BRANCH   6   8
ATOM      8  C   UNL     1      27.543  42.933  61.951  0.00  0.00    +0.000 C 
ATOM      9  C   UNL     1      28.598  43.474  62.381  0.00  0.00    +0.000 C 
BRANCH   9  10
ATOM     10  C   UNL     1      28.611  44.963  62.424  0.00  0.00    +0.000 A 
ATOM     11  C   UNL     1      29.730  45.706  62.455  0.00  0.00    +0.000 A 
ATOM     12  C   UNL     1      29.797  47.091  62.298  0.00  0.00    +0.000 A 
ATOM     13  C   UNL     1      28.552  47.747  62.087  0.00  0.00    +0.000 A 
ATOM     14  O   UNL     1      28.598  49.122  61.913  0.00  0.00    +0.000 OA
ATOM     15  C   UNL     1      27.421  47.028  62.069  0.00  0.00    +0.000 A 
ATOM     16  C   UNL     1      27.402  45.637  62.231  0.00  0.00    +0.000 A 
ENDBRANCH   9  10
ENDBRANCH   6   8
BRANCH   1  17
ATOM     17  O   UNL     1      24.280  39.533  60.599  0.00  0.00    +0.000 OA
BRANCH  17  20
ATOM     18  C   UNL     1      21.294  41.149  61.634  0.00  0.00    +0.000 C 
ATOM     19  O   UNL     1      22.394  40.149  61.633  0.00  0.00    +0.000 OA
ATOM     20  C   UNL     1      23.181  40.634  60.444  0.00  0.00    +0.000 C 
ATOM     21  C   UNL     1      22.335  39.877  59.183  0.00  0.00    +0.000 C 
ATOM     22  O   UNL     1      23.172  40.564  58.123  0.00  0.00    +0.000 OA
ATOM     23  C   UNL     1      21.200  41.215  59.187  0.00  0.00    +0.000 C 
ATOM     24  O   UNL     1      20.409  40.527  58.090  0.00  0.00    +0.000 OA
ATOM     25  C   UNL     1      20.321  40.407  60.419  0.00  0.00    +0.000 C 
ATOM     26  O   UNL     1      19.282  41.500  60.470  0.00  0.00    +0.000 OA
BRANCH  18  28
ATOM     27  O   UNL     1      20.626  40.967  63.960  0.00  0.00    +0.000 OA
ATOM     28  C   UNL     1      20.460  40.229  62.812  0.00  0.00    +0.000 C 
ENDBRANCH  18  28
ENDBRANCH  17  20
ENDBRANCH   1  17
TORSDOF 5
ENDMDL
MODEL 10
REMARK VINA RESULT:      -7.1      2.022      3.186
REMARK  Name = 
REMARK  5 active torsions:
REMARK  status: ('A' for Active; 'I' for Inactive)
REMARK    1  A    between atoms: C_2  and  C_3
REMARK    2  A    between atoms: C_5  and  O_6
REMARK    3  A    between atoms: O_6  and  C_7
REMARK    4  A    between atoms: C_12  and  C_13
REMARK    5  A    between atoms: C_14  and  C_15
REMARK                            x       y       z     vdW  Elec       q    Type
REMARK                         _______ _______ _______ _____ _____    ______ ____
ROOT
ATOM      1  C   UNL     1      37.733  52.121  59.125  0.00  0.00    +0.000 A 
ATOM      2  C   UNL     1      36.575  51.344  59.270  0.00  0.00    +0.000 A 
ATOM      3  C   UNL     1      35.327  51.834  59.022  0.00  0.00    +0.000 A 
ATOM      4  O   UNL     1      34.259  50.936  59.215  0.00  0.00    +0.000 OA
ATOM      5  C   UNL     1      35.176  53.103  58.621  0.00  0.00    +0.000 A 
ATOM      6  C   UNL     1      36.330  53.938  58.458  0.00  0.00    +0.000 A 
ATOM      7  C   UNL     1      37.601  53.398  58.727  0.00  0.00    +0.000 A 
ENDROOT
BRANCH   6   8
ATOM      8  C   UNL     1      36.017  55.181  57.928  0.00  0.00    +0.000 C 
ATOM      9  C   UNL     1      36.123  56.390  58.272  0.00  0.00    +0.000 C 
BRANCH   9  10
ATOM     10  C   UNL     1      35.634  57.403  57.298  0.00  0.00    +0.000 A 
ATOM     11  C   UNL     1      36.099  57.528  56.043  0.00  0.00    +0.000 A 
ATOM     12  C   UNL     1      35.543  58.321  55.039  0.00  0.00    +0.000 A 
ATOM     13  C   UNL     1      34.378  59.053  55.407  0.00  0.00    +0.000 A 
ATOM     14  O   UNL     1      33.801  59.836  54.420  0.00  0.00    +0.000 OA
ATOM     15  C   UNL     1      33.906  58.958  56.658  0.00  0.00    +0.000 A 
ATOM     16  C   UNL     1      34.499  58.146  57.634  0.00  0.00    +0.000 A 
ENDBRANCH   9  10
ENDBRANCH   6   8
BRANCH   1  17
ATOM     17  O   UNL     1      38.980  51.558  59.388  0.00  0.00    +0.000 OA
BRANCH  17  20
ATOM     18  C   UNL     1      40.264  51.210  62.679  0.00  0.00    +0.000 C 
ATOM     19  O   UNL     1      40.059  51.806  61.333  0.00  0.00    +0.000 OA
ATOM     20  C   UNL     1      39.117  50.789  60.743  0.00  0.00    +0.000 C 
ATOM     21  C   UNL     1      40.222  49.627  60.188  0.00  0.00    +0.000 C 
ATOM     22  O   UNL     1      39.115  48.683  59.765  0.00  0.00    +0.000 OA
ATOM     23  C   UNL     1      40.238  48.925  61.796  0.00  0.00    +0.000 C 
ATOM     24  O   UNL     1      41.261  47.908  61.324  0.00  0.00    +0.000 OA
ATOM     25  C   UNL     1      41.459  50.051  62.227  0.00  0.00    +0.000 C 
ATOM     26  O   UNL     1      41.559  49.490  63.624  0.00  0.00    +0.000 OA
BRANCH  18  28
ATOM     27  O   UNL     1      41.128  52.930  64.158  0.00  0.00    +0.000 OA
ATOM     28  C   UNL     1      41.520  52.332  62.983  0.00  0.00    +0.000 C 
ENDBRANCH  18  28
ENDBRANCH  17  20
ENDBRANCH   1  17
TORSDOF 5
ENDMDL
