MODEL 1
REMARK VINA RESULT:      -6.5      0.000      0.000
REMARK  Name = 
REMARK  4 active torsions:
REMARK  status: ('A' for Active; 'I' for Inactive)
REMARK    1  A    between atoms: O_2  and  C_3
REMARK    2  A    between atoms: C_5  and  C_6
REMARK    3  A    between atoms: C_7  and  C_8
REMARK    4  A    between atoms: C_17  and  O_18
REMARK                            x       y       z     vdW  Elec       q    Type
REMARK                         _______ _______ _______ _____ _____    ______ ____
ROOT
ATOM      1  C   UNL     1      35.531  58.229  55.517  0.00  0.00    +0.000 A 
ATOM      2  C   UNL     1      36.243  57.870  56.628  0.00  0.00    +0.000 A 
ATOM      3  C   UNL     1      35.748  58.048  57.943  0.00  0.00    +0.000 A 
ATOM      4  C   UNL     1      34.513  58.605  57.969  0.00  0.00    +0.000 A 
ATOM      5  C   UNL     1      33.750  58.986  56.900  0.00  0.00    +0.000 A 
ATOM      6  C   UNL     1      34.277  58.792  55.611  0.00  0.00    +0.000 A 
ENDROOT
BRANCH   1   8
ATOM      7  C   UNL     1      35.580  58.752  53.146  0.00  0.00    +0.000 C 
ATOM      8  O   UNL     1      36.076  58.028  54.237  0.00  0.00    +0.000 OA
ENDBRANCH   1   8
BRANCH   3   9
ATOM      9  C   UNL     1      36.605  57.625  58.997  0.00  0.00    +0.000 C 
ATOM     10  C   UNL     1      36.547  56.574  59.643  0.00  0.00    +0.000 C 
BRANCH  10  11
ATOM     11  C   UNL     1      35.594  55.532  59.477  0.00  0.00    +0.000 A 
ATOM     12  C   UNL     1      34.327  55.411  59.926  0.00  0.00    +0.000 A 
ATOM     13  C   UNL     1      33.482  54.347  59.704  0.00  0.00    +0.000 A 
ATOM     14  C   UNL     1      33.929  53.271  58.952  0.00  0.00    +0.000 A 
ATOM     15  O   UNL     1      33.139  52.167  58.687  0.00  0.00    +0.000 OA
ATOM     16  C   UNL     1      35.209  53.352  58.476  0.00  0.00    +0.000 A 
ATOM     17  O   UNL     1      35.650  52.268  57.723  0.00  0.00    +0.000 OA
ATOM     18  C   UNL     1      36.029  54.424  58.713  0.00  0.00    +0.000 A 
ENDBRANCH  10  11
ENDBRANCH   3   9
BRANCH   5  19
ATOM     19  O   UNL     1      32.500  59.549  56.925  0.00  0.00    +0.000 OA
ATOM     20  C   UNL     1      31.904  60.278  57.951  0.00  0.00    +0.000 C 
ENDBRANCH   5  19
TORSDOF 4
ENDMDL
MODEL 2
REMARK VINA RESULT:      -6.4      0.247      2.687
REMARK  Name = 
REMARK  4 active torsions:
REMARK  status: ('A' for Active; 'I' for Inactive)
REMARK    1  A    between atoms: O_2  and  C_3
REMARK    2  A    between atoms: C_5  and  C_6
REMARK    3  A    between atoms: C_7  and  C_8
REMARK    4  A    between atoms: C_17  and  O_18
REMARK                            x       y       z     vdW  Elec       q    Type
REMARK                         _______ _______ _______ _____ _____    ______ ____
ROOT
ATOM      1  C   UNL     1      33.842  58.956  57.109  0.00  0.00    +0.000 A 
ATOM      2  C   UNL     1      34.637  58.557  58.148  0.00  0.00    +0.000 A 
ATOM      3  C   UNL     1      35.898  57.942  57.953  0.00  0.00    +0.000 A 
ATOM      4  C   UNL     1      36.217  57.800  56.644  0.00  0.00    +0.000 A 
ATOM      5  C   UNL     1      35.470  58.176  55.561  0.00  0.00    +0.000 A 
ATOM      6  C   UNL     1      34.224  58.783  55.797  0.00  0.00    +0.000 A 
ENDROOT
BRANCH   1   8
ATOM      7  C   UNL     1      32.477  60.490  58.406  0.00  0.00    +0.000 C 
ATOM      8  O   UNL     1      32.599  59.561  57.365  0.00  0.00    +0.000 OA
ENDBRANCH   1   8
BRANCH   3   9
ATOM      9  C   UNL     1      36.608  57.584  59.132  0.00  0.00    +0.000 C 
ATOM     10  C   UNL     1      36.465  56.570  59.822  0.00  0.00    +0.000 C 
BRANCH  10  11
ATOM     11  C   UNL     1      35.541  55.513  59.591  0.00  0.00    +0.000 A 
ATOM     12  C   UNL     1      34.257  55.360  59.977  0.00  0.00    +0.000 A 
ATOM     13  C   UNL     1      33.445  54.285  59.694  0.00  0.00    +0.000 A 
ATOM     14  C   UNL     1      33.947  53.234  58.942  0.00  0.00    +0.000 A 
ATOM     15  O   UNL     1      33.192  52.121  58.617  0.00  0.00    +0.000 OA
ATOM     16  C   UNL     1      35.246  53.349  58.528  0.00  0.00    +0.000 A 
ATOM     17  O   UNL     1      35.743  52.290  57.774  0.00  0.00    +0.000 OA
ATOM     18  C   UNL     1      36.033  54.431  58.825  0.00  0.00    +0.000 A 
ENDBRANCH  10  11
ENDBRANCH   3   9
BRANCH   5  19
ATOM     19  O   UNL     1      35.792  58.032  54.236  0.00  0.00    +0.000 OA
ATOM     20  C   UNL     1      35.392  58.820  53.161  0.00  0.00    +0.000 C 
ENDBRANCH   5  19
TORSDOF 4
ENDMDL
MODEL 3
REMARK VINA RESULT:      -6.0      4.866      6.882
REMARK  Name = 
REMARK  4 active torsions:
REMARK  status: ('A' for Active; 'I' for Inactive)
REMARK    1  A    between atoms: O_2  and  C_3
REMARK    2  A    between atoms: C_5  and  C_6
REMARK    3  A    between atoms: C_7  and  C_8
REMARK    4  A    between atoms: C_17  and  O_18
REMARK                            x       y       z     vdW  Elec       q    Type
REMARK                         _______ _______ _______ _____ _____    ______ ____
ROOT
ATOM      1  C   UNL     1      39.772  54.498  60.719  0.00  0.00    +0.000 A 
ATOM      2  C   UNL     1      38.551  54.861  60.221  0.00  0.00    +0.000 A 
ATOM      3  C   UNL     1      38.031  54.335  59.013  0.00  0.00    +0.000 A 
ATOM      4  C   UNL     1      38.869  53.450  58.422  0.00  0.00    +0.000 A 
ATOM      5  C   UNL     1      40.099  53.045  58.865  0.00  0.00    +0.000 A 
ATOM      6  C   UNL     1      40.578  53.590  60.069  0.00  0.00    +0.000 A 
ENDROOT
BRANCH   1   8
ATOM      7  C   UNL     1      39.538  56.117  62.514  0.00  0.00    +0.000 C 
ATOM      8  O   UNL     1      40.234  55.055  61.924  0.00  0.00    +0.000 OA
ENDBRANCH   1   8
BRANCH   3   9
ATOM      9  C   UNL     1      36.747  54.809  58.625  0.00  0.00    +0.000 C 
ATOM     10  C   UNL     1      35.654  54.264  58.806  0.00  0.00    +0.000 C 
BRANCH  10  11
ATOM     11  C   UNL     1      35.428  53.017  59.453  0.00  0.00    +0.000 A 
ATOM     12  C   UNL     1      35.287  51.773  58.951  0.00  0.00    +0.000 A 
ATOM     13  C   UNL     1      35.069  50.623  59.676  0.00  0.00    +0.000 A 
ATOM     14  C   UNL     1      34.979  50.698  61.057  0.00  0.00    +0.000 A 
ATOM     15  O   UNL     1      34.761  49.587  61.853  0.00  0.00    +0.000 OA
ATOM     16  C   UNL     1      35.116  51.943  61.609  0.00  0.00    +0.000 A 
ATOM     17  O   UNL     1      35.023  52.010  62.996  0.00  0.00    +0.000 OA
ATOM     18  C   UNL     1      35.331  53.072  60.863  0.00  0.00    +0.000 A 
ENDBRANCH  10  11
ENDBRANCH   3   9
BRANCH   5  19
ATOM     19  O   UNL     1      40.947  52.149  58.267  0.00  0.00    +0.000 OA
ATOM     20  C   UNL     1      42.337  52.193  58.196  0.00  0.00    +0.000 C 
ENDBRANCH   5  19
TORSDOF 4
ENDMDL
MODEL 4
REMARK VINA RESULT:      -5.9      1.910      6.423
REMARK  Name = 
REMARK  4 active torsions:
REMARK  status: ('A' for Active; 'I' for Inactive)
REMARK    1  A    between atoms: O_2  and  C_3
REMARK    2  A    between atoms: C_5  and  C_6
REMARK    3  A    between atoms: C_7  and  C_8
REMARK    4  A    between atoms: C_17  and  O_18
REMARK                            x       y       z     vdW  Elec       q    Type
REMARK                         _______ _______ _______ _____ _____    ______ ____
ROOT
ATOM      1  C   UNL     1      36.179  53.428  58.478  0.00  0.00    +0.000 A 
ATOM      2  C   UNL     1      35.405  54.532  58.704  0.00  0.00    +0.000 A 
ATOM      3  C   UNL     1      35.916  55.718  59.287  0.00  0.00    +0.000 A 
ATOM      4  C   UNL     1      37.233  55.630  59.588  0.00  0.00    +0.000 A 
ATOM      5  C   UNL     1      38.062  54.560  59.389  0.00  0.00    +0.000 A 
ATOM      6  C   UNL     1      37.517  53.402  58.808  0.00  0.00    +0.000 A 
ENDROOT
BRANCH   1   8
ATOM      7  C   UNL     1      35.005  51.315  58.707  0.00  0.00    +0.000 C 
ATOM      8  O   UNL     1      35.616  52.279  57.896  0.00  0.00    +0.000 OA
ENDBRANCH   1   8
BRANCH   3   9
ATOM      9  C   UNL     1      34.987  56.782  59.457  0.00  0.00    +0.000 C 
ATOM     10  C   UNL     1      34.652  57.633  58.628  0.00  0.00    +0.000 C 
BRANCH  10  11
ATOM     11  C   UNL     1      35.129  57.746  57.292  0.00  0.00    +0.000 A 
ATOM     12  C   UNL     1      36.189  57.178  56.680  0.00  0.00    +0.000 A 
ATOM     13  C   UNL     1      36.563  57.358  55.367  0.00  0.00    +0.000 A 
ATOM     14  C   UNL     1      35.810  58.190  54.554  0.00  0.00    +0.000 A 
ATOM     15  O   UNL     1      36.123  58.420  53.227  0.00  0.00    +0.000 OA
ATOM     16  C   UNL     1      34.723  58.787  55.135  0.00  0.00    +0.000 A 
ATOM     17  O   UNL     1      33.973  59.622  54.313  0.00  0.00    +0.000 OA
ATOM     18  C   UNL     1      34.375  58.591  56.445  0.00  0.00    +0.000 A 
ENDBRANCH  10  11
ENDBRANCH   3   9
BRANCH   5  19
ATOM     19  O   UNL     1      39.396  54.471  59.694  0.00  0.00    +0.000 OA
ATOM     20  C   UNL     1      39.991  54.408  60.951  0.00  0.00    +0.000 C 
ENDBRANCH   5  19
TORSDOF 4
ENDMDL
MODEL 5
REMARK VINA RESULT:      -5.9      4.770      6.502
REMARK  Name = 
REMARK  4 active torsions:
REMARK  status: ('A' for Active; 'I' for Inactive)
REMARK    1  A    between atoms: O_2  and  C_3
REMARK    2  A    between atoms: C_5  and  C_6
REMARK    3  A    between atoms: C_7  and  C_8
REMARK    4  A    between atoms: C_17  and  O_18
REMARK                            x       y       z     vdW  Elec       q    Type
REMARK                         _______ _______ _______ _____ _____    ______ ____
ROOT
ATOM      1  C   UNL     1      39.850  53.291  58.854  0.00  0.00    +0.000 A 
ATOM      2  C   UNL     1      38.601  53.741  58.525  0.00  0.00    +0.000 A 
ATOM      3  C   UNL     1      37.861  54.619  59.355  0.00  0.00    +0.000 A 
ATOM      4  C   UNL     1      38.522  54.952  60.489  0.00  0.00    +0.000 A 
ATOM      5  C   UNL     1      39.768  54.538  60.878  0.00  0.00    +0.000 A 
ATOM      6  C   UNL     1      40.470  53.668  60.026  0.00  0.00    +0.000 A 
ENDROOT
BRANCH   1   8
ATOM      7  C   UNL     1      41.936  52.432  57.955  0.00  0.00    +0.000 C 
ATOM      8  O   UNL     1      40.536  52.421  57.989  0.00  0.00    +0.000 OA
ENDBRANCH   1   8
BRANCH   3   9
ATOM      9  C   UNL     1      36.577  54.999  58.876  0.00  0.00    +0.000 C 
ATOM     10  C   UNL     1      35.521  54.364  58.958  0.00  0.00    +0.000 C 
BRANCH  10  11
ATOM     11  C   UNL     1      35.347  53.086  59.559  0.00  0.00    +0.000 A 
ATOM     12  C   UNL     1      35.252  51.856  59.013  0.00  0.00    +0.000 A 
ATOM     13  C   UNL     1      35.084  50.673  59.696  0.00  0.00    +0.000 A 
ATOM     14  C   UNL     1      34.999  50.694  61.079  0.00  0.00    +0.000 A 
ATOM     15  O   UNL     1      34.829  49.547  61.834  0.00  0.00    +0.000 OA
ATOM     16  C   UNL     1      35.091  51.922  61.676  0.00  0.00    +0.000 A 
ATOM     17  O   UNL     1      35.004  51.935  63.064  0.00  0.00    +0.000 OA
ATOM     18  C   UNL     1      35.258  53.085  60.971  0.00  0.00    +0.000 A 
ENDBRANCH  10  11
ENDBRANCH   3   9
BRANCH   5  19
ATOM     19  O   UNL     1      40.438  54.875  62.026  0.00  0.00    +0.000 OA
ATOM     20  C   UNL     1      40.839  54.041  63.066  0.00  0.00    +0.000 C 
ENDBRANCH   5  19
TORSDOF 4
ENDMDL
MODEL 6
REMARK VINA RESULT:      -5.8      1.910      3.411
REMARK  Name = 
REMARK  4 active torsions:
REMARK  status: ('A' for Active; 'I' for Inactive)
REMARK    1  A    between atoms: O_2  and  C_3
REMARK    2  A    between atoms: C_5  and  C_6
REMARK    3  A    between atoms: C_7  and  C_8
REMARK    4  A    between atoms: C_17  and  O_18
REMARK                            x       y       z     vdW  Elec       q    Type
REMARK                         _______ _______ _______ _____ _____    ______ ____
ROOT
ATOM      1  C   UNL     1      37.215  59.580  57.241  0.00  0.00    +0.000 A 
ATOM      2  C   UNL     1      36.355  59.035  58.154  0.00  0.00    +0.000 A 
ATOM      3  C   UNL     1      35.385  58.062  57.806  0.00  0.00    +0.000 A 
ATOM      4  C   UNL     1      35.410  57.744  56.490  0.00  0.00    +0.000 A 
ATOM      5  C   UNL     1      36.240  58.250  55.527  0.00  0.00    +0.000 A 
ATOM      6  C   UNL     1      37.189  59.213  55.913  0.00  0.00    +0.000 A 
ENDROOT
BRANCH   1   8
ATOM      7  C   UNL     1      39.318  60.742  56.892  0.00  0.00    +0.000 C 
ATOM      8  O   UNL     1      38.156  60.542  57.647  0.00  0.00    +0.000 OA
ENDBRANCH   1   8
BRANCH   3   9
ATOM      9  C   UNL     1      34.564  57.590  58.867  0.00  0.00    +0.000 C 
ATOM     10  C   UNL     1      34.700  56.553  59.523  0.00  0.00    +0.000 C 
BRANCH  10  11
ATOM     11  C   UNL     1      35.725  55.579  59.364  0.00  0.00    +0.000 A 
ATOM     12  C   UNL     1      37.025  55.597  59.724  0.00  0.00    +0.000 A 
ATOM     13  C   UNL     1      37.940  54.588  59.519  0.00  0.00    +0.000 A 
ATOM     14  C   UNL     1      37.535  53.422  58.889  0.00  0.00    +0.000 A 
ATOM     15  O   UNL     1      38.396  52.366  58.648  0.00  0.00    +0.000 OA
ATOM     16  C   UNL     1      36.222  53.361  58.507  0.00  0.00    +0.000 A 
ATOM     17  O   UNL     1      35.824  52.189  57.873  0.00  0.00    +0.000 OA
ATOM     18  C   UNL     1      35.333  54.382  58.722  0.00  0.00    +0.000 A 
ENDBRANCH  10  11
ENDBRANCH   3   9
BRANCH   5  19
ATOM     19  O   UNL     1      36.265  57.928  54.194  0.00  0.00    +0.000 OA
ATOM     20  C   UNL     1      36.208  58.786  53.099  0.00  0.00    +0.000 C 
ENDBRANCH   5  19
TORSDOF 4
ENDMDL
MODEL 7
REMARK VINA RESULT:      -5.6      1.789      6.295
REMARK  Name = 
REMARK  4 active torsions:
REMARK  status: ('A' for Active; 'I' for Inactive)
REMARK    1  A    between atoms: O_2  and  C_3
REMARK    2  A    between atoms: C_5  and  C_6
REMARK    3  A    between atoms: C_7  and  C_8
REMARK    4  A    between atoms: C_17  and  O_18
REMARK                            x       y       z     vdW  Elec       q    Type
REMARK                         _______ _______ _______ _____ _____    ______ ____
ROOT
ATOM      1  C   UNL     1      37.562  54.902  59.828  0.00  0.00    +0.000 A 
ATOM      2  C   UNL     1      36.786  56.021  59.957  0.00  0.00    +0.000 A 
ATOM      3  C   UNL     1      35.472  56.104  59.434  0.00  0.00    +0.000 A 
ATOM      4  C   UNL     1      35.085  54.970  58.804  0.00  0.00    +0.000 A 
ATOM      5  C   UNL     1      35.809  53.821  58.639  0.00  0.00    +0.000 A 
ATOM      6  C   UNL     1      37.108  53.778  59.174  0.00  0.00    +0.000 A 
ENDROOT
BRANCH   1   8
ATOM      7  C   UNL     1      39.109  55.479  61.609  0.00  0.00    +0.000 C 
ATOM      8  O   UNL     1      38.859  54.879  60.369  0.00  0.00    +0.000 OA
ENDBRANCH   1   8
BRANCH   3   9
ATOM      9  C   UNL     1      34.790  57.334  59.649  0.00  0.00    +0.000 C 
ATOM     10  C   UNL     1      34.574  58.233  58.830  0.00  0.00    +0.000 C 
BRANCH  10  11
ATOM     11  C   UNL     1      34.967  58.242  57.463  0.00  0.00    +0.000 A 
ATOM     12  C   UNL     1      36.051  57.724  56.850  0.00  0.00    +0.000 A 
ATOM     13  C   UNL     1      36.335  57.791  55.504  0.00  0.00    +0.000 A 
ATOM     14  C   UNL     1      35.453  58.442  54.656  0.00  0.00    +0.000 A 
ATOM     15  O   UNL     1      35.670  58.551  53.294  0.00  0.00    +0.000 OA
ATOM     16  C   UNL     1      34.338  58.983  55.236  0.00  0.00    +0.000 A 
ATOM     17  O   UNL     1      33.458  59.635  54.379  0.00  0.00    +0.000 OA
ATOM     18  C   UNL     1      34.081  58.902  56.580  0.00  0.00    +0.000 A 
ENDBRANCH  10  11
ENDBRANCH   3   9
BRANCH   5  19
ATOM     19  O   UNL     1      35.417  52.672  58.001  0.00  0.00    +0.000 OA
ATOM     20  C   UNL     1      35.538  51.357  58.442  0.00  0.00    +0.000 C 
ENDBRANCH   5  19
TORSDOF 4
ENDMDL
MODEL 8
REMARK VINA RESULT:      -5.6      1.904      3.112
REMARK  Name = 
REMARK  4 active torsions:
REMARK  status: ('A' for Active; 'I' for Inactive)
REMARK    1  A    between atoms: O_2  and  C_3
REMARK    2  A    between atoms: C_5  and  C_6
REMARK    3  A    between atoms: C_7  and  C_8
REMARK    4  A    between atoms: C_17  and  O_18
REMARK                            x       y       z     vdW  Elec       q    Type
REMARK                         _______ _______ _______ _____ _____    ______ ____
ROOT
ATOM      1  C   UNL     1      36.304  58.440  55.293  0.00  0.00    +0.000 A 
ATOM      2  C   UNL     1      35.413  57.981  56.223  0.00  0.00    +0.000 A 
ATOM      3  C   UNL     1      35.502  58.312  57.597  0.00  0.00    +0.000 A 
ATOM      4  C   UNL     1      36.553  59.120  57.876  0.00  0.00    +0.000 A 
ATOM      5  C   UNL     1      37.478  59.614  56.997  0.00  0.00    +0.000 A 
ATOM      6  C   UNL     1      37.354  59.262  55.641  0.00  0.00    +0.000 A 
ENDROOT
BRANCH   1   8
ATOM      7  C   UNL     1      35.361  58.848  53.093  0.00  0.00    +0.000 C 
ATOM      8  O   UNL     1      36.164  58.077  53.943  0.00  0.00    +0.000 OA
ENDBRANCH   1   8
BRANCH   3   9
ATOM      9  C   UNL     1      34.501  57.757  58.441  0.00  0.00    +0.000 C 
ATOM     10  C   UNL     1      34.531  56.679  59.043  0.00  0.00    +0.000 C 
BRANCH  10  11
ATOM     11  C   UNL     1      35.592  55.732  59.027  0.00  0.00    +0.000 A 
ATOM     12  C   UNL     1      36.875  55.833  59.434  0.00  0.00    +0.000 A 
ATOM     13  C   UNL     1      37.829  54.842  59.373  0.00  0.00    +0.000 A 
ATOM     14  C   UNL     1      37.488  53.603  58.852  0.00  0.00    +0.000 A 
ATOM     15  O   UNL     1      38.391  52.559  58.758  0.00  0.00    +0.000 OA
ATOM     16  C   UNL     1      36.195  53.456  58.427  0.00  0.00    +0.000 A 
ATOM     17  O   UNL     1      35.861  52.210  57.906  0.00  0.00    +0.000 OA
ATOM     18  C   UNL     1      35.266  54.461  58.499  0.00  0.00    +0.000 A 
ENDBRANCH  10  11
ENDBRANCH   3   9
BRANCH   5  19
ATOM     19  O   UNL     1      38.542  60.433  57.278  0.00  0.00    +0.000 OA
ATOM     20  C   UNL     1      38.765  61.192  58.423  0.00  0.00    +0.000 C 
ENDBRANCH   5  19
TORSDOF 4
ENDMDL
MODEL 9
REMARK VINA RESULT:      -5.5      4.004      6.380
REMARK  Name = 
REMARK  4 active torsions:
REMARK  status: ('A' for Active; 'I' for Inactive)
REMARK    1  A    between atoms: O_2  and  C_3
REMARK    2  A    between atoms: C_5  and  C_6
REMARK    3  A    between atoms: C_7  and  C_8
REMARK    4  A    between atoms: C_17  and  O_18
REMARK                            x       y       z     vdW  Elec       q    Type
REMARK                         _______ _______ _______ _____ _____    ______ ____
ROOT
ATOM      1  C   UNL     1      36.146  54.869  58.549  0.00  0.00    +0.000 A 
ATOM      2  C   UNL     1      35.361  53.751  58.599  0.00  0.00    +0.000 A 
ATOM      3  C   UNL     1      35.898  52.444  58.702  0.00  0.00    +0.000 A 
ATOM      4  C   UNL     1      37.251  52.433  58.745  0.00  0.00    +0.000 A 
ATOM      5  C   UNL     1      38.093  53.511  58.699  0.00  0.00    +0.000 A 
ATOM      6  C   UNL     1      37.521  54.791  58.597  0.00  0.00    +0.000 A 
ENDROOT
BRANCH   1   8
ATOM      7  C   UNL     1      36.347  57.289  58.566  0.00  0.00    +0.000 C 
ATOM      8  O   UNL     1      35.555  56.140  58.446  0.00  0.00    +0.000 OA
ENDBRANCH   1   8
BRANCH   3   9
ATOM      9  C   UNL     1      34.953  51.381  58.744  0.00  0.00    +0.000 C 
ATOM     10  C   UNL     1      34.667  50.661  59.706  0.00  0.00    +0.000 C 
BRANCH  10  11
ATOM     11  C   UNL     1      35.227  50.732  61.011  0.00  0.00    +0.000 A 
ATOM     12  C   UNL     1      35.126  51.679  61.967  0.00  0.00    +0.000 A 
ATOM     13  C   UNL     1      35.716  51.647  63.211  0.00  0.00    +0.000 A 
ATOM     14  C   UNL     1      36.499  50.558  63.562  0.00  0.00    +0.000 A 
ATOM     15  O   UNL     1      37.124  50.454  64.792  0.00  0.00    +0.000 OA
ATOM     16  C   UNL     1      36.629  49.573  62.622  0.00  0.00    +0.000 A 
ATOM     17  O   UNL     1      37.416  48.484  62.981  0.00  0.00    +0.000 OA
ATOM     18  C   UNL     1      36.030  49.631  61.390  0.00  0.00    +0.000 A 
ENDBRANCH  10  11
ENDBRANCH   3   9
BRANCH   5  19
ATOM     19  O   UNL     1      39.464  53.501  58.742  0.00  0.00    +0.000 OA
ATOM     20  C   UNL     1      40.296  53.889  59.788  0.00  0.00    +0.000 C 
ENDBRANCH   5  19
TORSDOF 4
ENDMDL
MODEL 10
REMARK VINA RESULT:      -5.4      2.720      4.476
REMARK  Name = 
REMARK  4 active torsions:
REMARK  status: ('A' for Active; 'I' for Inactive)
REMARK    1  A    between atoms: O_2  and  C_3
REMARK    2  A    between atoms: C_5  and  C_6
REMARK    3  A    between atoms: C_7  and  C_8
REMARK    4  A    between atoms: C_17  and  O_18
REMARK                            x       y       z     vdW  Elec       q    Type
REMARK                         _______ _______ _______ _____ _____    ______ ____
ROOT
ATOM      1  C   UNL     1      36.226  58.744  58.168  0.00  0.00    +0.000 A 
ATOM      2  C   UNL     1      35.772  57.679  58.896  0.00  0.00    +0.000 A 
ATOM      3  C   UNL     1      35.681  56.370  58.362  0.00  0.00    +0.000 A 
ATOM      4  C   UNL     1      36.088  56.299  57.072  0.00  0.00    +0.000 A 
ATOM      5  C   UNL     1      36.551  57.321  56.289  0.00  0.00    +0.000 A 
ATOM      6  C   UNL     1      36.626  58.605  56.857  0.00  0.00    +0.000 A 
ENDROOT
BRANCH   1   8
ATOM      7  C   UNL     1      35.219  60.495  59.515  0.00  0.00    +0.000 C 
ATOM      8  O   UNL     1      36.293  60.020  58.753  0.00  0.00    +0.000 OA
ENDBRANCH   1   8
BRANCH   3   9
ATOM      9  C   UNL     1      35.190  55.367  59.244  0.00  0.00    +0.000 C 
ATOM     10  C   UNL     1      35.844  54.544  59.892  0.00  0.00    +0.000 C 
BRANCH  10  11
ATOM     11  C   UNL     1      37.260  54.409  59.902  0.00  0.00    +0.000 A 
ATOM     12  C   UNL     1      38.191  54.917  60.736  0.00  0.00    +0.000 A 
ATOM     13  C   UNL     1      39.552  54.720  60.654  0.00  0.00    +0.000 A 
ATOM     14  C   UNL     1      40.063  53.932  59.635  0.00  0.00    +0.000 A 
ATOM     15  O   UNL     1      41.417  53.689  59.487  0.00  0.00    +0.000 OA
ATOM     16  C   UNL     1      39.153  53.396  58.765  0.00  0.00    +0.000 A 
ATOM     17  O   UNL     1      39.674  52.606  57.745  0.00  0.00    +0.000 OA
ATOM     18  C   UNL     1      37.803  53.609  58.870  0.00  0.00    +0.000 A 
ENDBRANCH  10  11
ENDBRANCH   3   9
BRANCH   5  19
ATOM     19  O   UNL     1      36.963  57.250  54.983  0.00  0.00    +0.000 OA
ATOM     20  C   UNL     1      36.980  58.264  54.028  0.00  0.00    +0.000 C 
ENDBRANCH   5  19
TORSDOF 4
ENDMDL
