REMARK  Name = 
REMARK  5 active torsions:
REMARK  status: ('A' for Active; 'I' for Inactive)
REMARK    1  A    between atoms: C_2  and  C_3
REMARK    2  A    between atoms: C_5  and  O_6
REMARK    3  A    between atoms: O_6  and  C_7
REMARK    4  A    between atoms: C_12  and  C_13
REMARK    5  A    between atoms: C_14  and  C_15
REMARK                            x       y       z     vdW  Elec       q    Type
REMARK                         _______ _______ _______ _____ _____    ______ ____
ROOT
ATOM      1  C   UNL     1      -1.009  -0.314  -0.832  0.00  0.00    +0.000 A 
ATOM      2  C   UNL     1      -1.382  -1.724  -0.609  0.00  0.00    +0.000 A 
ATOM      3  C   UNL     1      -0.424  -2.642  -0.250  0.00  0.00    +0.000 A 
ATOM      4  O   UNL     1      -0.795  -3.970  -0.026  0.00  0.00    +0.000 OA
ATOM      5  C   UNL     1       0.858  -2.304  -0.101  0.00  0.00    +0.000 A 
ATOM      6  C   UNL     1       1.294  -0.983  -0.303  0.00  0.00    +0.000 A 
ATOM      7  C   UNL     1       0.277  -0.058  -0.653  0.00  0.00    +0.000 A 
ENDROOT
BRANCH   6   8
ATOM      8  C   UNL     1       2.578  -0.471  -0.157  0.00  0.00    +0.000 C 
ATOM      9  C   UNL     1       3.617  -1.120   0.428  0.00  0.00    +0.000 C 
BRANCH   9  10
ATOM     10  C   UNL     1       4.896  -0.281   0.413  0.00  0.00    +0.000 A 
ATOM     11  C   UNL     1       5.931  -0.596   1.296  0.00  0.00    +0.000 A 
ATOM     12  C   UNL     1       7.137   0.104   1.197  0.00  0.00    +0.000 A 
ATOM     13  C   UNL     1       7.283   1.053   0.260  0.00  0.00    +0.000 A 
ATOM     14  O   UNL     1       8.533   1.716   0.171  0.00  0.00    +0.000 OA
ATOM     15  C   UNL     1       6.325   1.416  -0.634  0.00  0.00    +0.000 A 
ATOM     16  C   UNL     1       5.076   0.692  -0.519  0.00  0.00    +0.000 A 
ENDBRANCH   9  10
ENDBRANCH   6   8
BRANCH   1  17
ATOM     17  O   UNL     1      -2.100   0.465  -1.227  0.00  0.00    +0.000 OA
BRANCH  17  20
ATOM     18  C   UNL     1      -5.389   0.314   0.187  0.00  0.00    +0.000 C 
ATOM     19  O   UNL     1      -4.215  -0.050  -0.589  0.00  0.00    +0.000 OA
ATOM     20  C   UNL     1      -2.988   0.480   0.158  0.00  0.00    +0.000 C 
ATOM     21  C   UNL     1      -3.518   2.159  -0.267  0.00  0.00    +0.000 C 
ATOM     22  O   UNL     1      -2.193   2.732   0.067  0.00  0.00    +0.000 OA
ATOM     23  C   UNL     1      -4.219   2.406   1.205  0.00  0.00    +0.000 C 
ATOM     24  O   UNL     1      -5.513   2.981   0.687  0.00  0.00    +0.000 OA
ATOM     25  C   UNL     1      -4.892   0.984   1.632  0.00  0.00    +0.000 C 
ATOM     26  O   UNL     1      -3.713   0.209   2.065  0.00  0.00    +0.000 OA
BRANCH  18  28
ATOM     27  O   UNL     1      -5.851  -2.009  -0.164  0.00  0.00    +0.000 OA
ATOM     28  C   UNL     1      -5.604  -1.189   0.886  0.00  0.00    +0.000 C 
ENDBRANCH  18  28
ENDBRANCH  17  20
ENDBRANCH   1  17
TORSDOF 5
