REMARK  Name = 
REMARK  5 active torsions:
REMARK  status: ('A' for Active; 'I' for Inactive)
REMARK    1  A    between atoms: O_2  and  C_3
REMARK    2  A    between atoms: C_6  and  C_7
REMARK    3  A    between atoms: C_7  and  C_8
REMARK    4  A    between atoms: C_10  and  C_11
REMARK    5  A    between atoms: C_13  and  O_14
REMARK                            x       y       z     vdW  Elec       q    Type
REMARK                         _______ _______ _______ _____ _____    ______ ____
ROOT
ATOM      1  C   UNL     1       0.861  -0.525  -0.394  0.00  0.00    +0.000 C 
ATOM      2  C   UNL     1       0.261   0.525   0.106  0.00  0.00    +0.000 C 
ENDROOT
BRANCH   2   3
ATOM      3  C   UNL     1      -1.130   0.459   0.490  0.00  0.00    +0.000 A 
ATOM      4  C   UNL     1      -1.595   0.938   1.702  0.00  0.00    +0.000 A 
ATOM      5  C   UNL     1      -2.943   0.894   2.021  0.00  0.00    +0.000 A 
ATOM      6  C   UNL     1      -3.824   0.358   1.097  0.00  0.00    +0.000 A 
ATOM      7  C   UNL     1      -3.382  -0.117  -0.098  0.00  0.00    +0.000 A 
ATOM      8  C   UNL     1      -2.038  -0.074  -0.415  0.00  0.00    +0.000 A 
ATOM      9  O   UNL     1      -4.476  -0.601  -0.839  0.00  0.00    +0.000 OA
ATOM     10  C   UNL     1      -5.544  -0.691   0.063  0.00  0.00    +0.000 C 
ATOM     11  O   UNL     1      -5.207   0.187   1.140  0.00  0.00    +0.000 OA
BRANCH   5  12
ATOM     12  O   UNL     1      -3.409   1.378   3.247  0.00  0.00    +0.000 OA
ATOM     13  C   UNL     1      -2.463   1.909   4.152  0.00  0.00    +0.000 C 
ENDBRANCH   5  12
ENDBRANCH   2   3
BRANCH   1  17
ATOM     14  C   UNL     1       5.021  -0.401  -1.515  0.00  0.00    +0.000 A 
ATOM     15  C   UNL     1       4.359   0.744  -1.038  0.00  0.00    +0.000 A 
ATOM     16  C   UNL     1       3.026   0.684  -0.692  0.00  0.00    +0.000 A 
ATOM     17  C   UNL     1       2.276  -0.461  -0.788  0.00  0.00    +0.000 A 
ATOM     18  C   UNL     1       2.914  -1.605  -1.260  0.00  0.00    +0.000 A 
ATOM     19  C   UNL     1       4.249  -1.540  -1.604  0.00  0.00    +0.000 A 
BRANCH  14  21
ATOM     20  C   UNL     1       7.080  -1.451  -2.347  0.00  0.00    +0.000 C 
ATOM     21  O   UNL     1       6.355  -0.345  -1.861  0.00  0.00    +0.000 OA
ENDBRANCH  14  21
ENDBRANCH   1  17
BRANCH   1  22
ATOM     22  C   UNL     1       0.109  -1.746  -0.532  0.00  0.00    +0.000 C 
ATOM     23  N   UNL     1      -0.500  -2.729  -0.633  0.00  0.00    +0.000 NA
ENDBRANCH   1  22
TORSDOF 5
