REMARK  Name = 
REMARK  6 active torsions:
REMARK  status: ('A' for Active; 'I' for Inactive)
REMARK    1  A    between atoms: O_2  and  C_3
REMARK    2  A    between atoms: C_5  and  C_6
REMARK    3  A    between atoms: C_7  and  C_8
REMARK    4  A    between atoms: C_11  and  O_12
REMARK    5  A    between atoms: C_15  and  O_16
REMARK    6  A    between atoms: C_19  and  O_20
REMARK                            x       y       z     vdW  Elec       q    Type
REMARK                         _______ _______ _______ _____ _____    ______ ____
ROOT
ATOM      1  C   UNL     1      -0.443   0.637   0.118  0.00  0.00    +0.000 C 
ATOM      2  C   UNL     1       0.347  -0.410  -0.055  0.00  0.00    +0.000 C 
ENDROOT
BRANCH   1   5
ATOM      3  C   UNL     1      -4.039   1.436   0.546  0.00  0.00    +0.000 A 
ATOM      4  C   UNL     1      -2.663   1.644   0.428  0.00  0.00    +0.000 A 
ATOM      5  C   UNL     1      -1.889   0.520   0.251  0.00  0.00    +0.000 A 
ATOM      6  C   UNL     1      -2.439  -0.739   0.191  0.00  0.00    +0.000 A 
ATOM      7  C   UNL     1      -3.786  -0.922   0.308  0.00  0.00    +0.000 A 
ATOM      8  C   UNL     1      -4.595   0.182   0.488  0.00  0.00    +0.000 A 
BRANCH   3  10
ATOM      9  C   UNL     1      -4.430   3.849   0.802  0.00  0.00    +0.000 C 
ATOM     10  O   UNL     1      -4.900   2.518   0.729  0.00  0.00    +0.000 OA
ENDBRANCH   3  10
BRANCH   7  11
ATOM     11  O   UNL     1      -4.300  -2.212   0.243  0.00  0.00    +0.000 OA
ATOM     12  C   UNL     1      -3.465  -3.319   0.060  0.00  0.00    +0.000 C 
ENDBRANCH   7  11
ENDBRANCH   1   5
BRANCH   2  13
ATOM     13  C   UNL     1       1.788  -0.167  -0.176  0.00  0.00    +0.000 A 
ATOM     14  C   UNL     1       2.318   1.105  -0.113  0.00  0.00    +0.000 A 
ATOM     15  C   UNL     1       3.668   1.360  -0.224  0.00  0.00    +0.000 A 
ATOM     16  C   UNL     1       4.563   0.327  -0.406  0.00  0.00    +0.000 A 
ATOM     17  C   UNL     1       4.036  -0.945  -0.468  0.00  0.00    +0.000 A 
ATOM     18  C   UNL     1       2.686  -1.199  -0.357  0.00  0.00    +0.000 A 
BRANCH  16  19
ATOM     19  O   UNL     1       5.938   0.558  -0.521  0.00  0.00    +0.000 OA
ATOM     20  C   UNL     1       6.437   1.880  -0.451  0.00  0.00    +0.000 C 
ENDBRANCH  16  19
BRANCH  18  21
ATOM     21  O   UNL     1       2.169  -2.486  -0.422  0.00  0.00    +0.000 OA
ATOM     22  C   UNL     1       2.999  -3.616  -0.607  0.00  0.00    +0.000 C 
ENDBRANCH  18  21
ENDBRANCH   2  13
TORSDOF 6
