REMARK  Name = 
REMARK  2 active torsions:
REMARK  status: ('A' for Active; 'I' for Inactive)
REMARK    1  A    between atoms: C_5  and  C_6
REMARK    2  A    between atoms: C_7  and  C_8
REMARK                            x       y       z     vdW  Elec       q    Type
REMARK                         _______ _______ _______ _____ _____    ______ ____
ROOT
ATOM      1  C   UNL     1       1.315   2.043   0.321  0.00  0.00    +0.000 C 
ATOM      2  C   UNL     1       0.140   2.125   0.705  0.00  0.00    +0.000 C 
ENDROOT
BRANCH   2   3
ATOM      3  C   UNL     1      -0.874   1.128   0.586  0.00  0.00    +0.000 A 
ATOM      4  C   UNL     1      -2.159   1.418   1.091  0.00  0.00    +0.000 A 
ATOM      5  C   UNL     1      -3.204   0.542   1.032  0.00  0.00    +0.000 A 
ATOM      6  O   UNL     1      -4.460   0.860   1.541  0.00  0.00    +0.000 OA
ATOM      7  C   UNL     1      -3.060  -0.700   0.463  0.00  0.00    +0.000 A 
ATOM      8  O   UNL     1      -4.128  -1.579   0.410  0.00  0.00    +0.000 OA
ATOM      9  C   UNL     1      -1.802  -1.036  -0.053  0.00  0.00    +0.000 A 
ATOM     10  O   UNL     1      -1.669  -2.275  -0.617  0.00  0.00    +0.000 OA
ATOM     11  C   UNL     1      -0.792  -0.107   0.039  0.00  0.00    +0.000 A 
ENDBRANCH   2   3
BRANCH   1  16
ATOM     12  O   UNL     1       4.268  -2.041  -2.288  0.00  0.00    +0.000 OA
ATOM     13  C   UNL     1       3.529  -1.061  -1.653  0.00  0.00    +0.000 A 
ATOM     14  C   UNL     1       4.033   0.162  -1.286  0.00  0.00    +0.000 A 
ATOM     15  C   UNL     1       3.298   1.122  -0.660  0.00  0.00    +0.000 A 
ATOM     16  C   UNL     1       1.926   0.934  -0.331  0.00  0.00    +0.000 A 
ATOM     17  C   UNL     1       1.459  -0.278  -0.705  0.00  0.00    +0.000 A 
ATOM     18  C   UNL     1       2.182  -1.258  -1.335  0.00  0.00    +0.000 A 
ENDBRANCH   1  16
TORSDOF 2
