MODEL 1
REMARK VINA RESULT:      -7.4      0.000      0.000
REMARK  Name = 
REMARK  5 active torsions:
REMARK  status: ('A' for Active; 'I' for Inactive)
REMARK    1  A    between atoms: C_2  and  C_3
REMARK    2  A    between atoms: C_5  and  O_6
REMARK    3  A    between atoms: O_6  and  C_7
REMARK    4  A    between atoms: C_12  and  C_13
REMARK    5  A    between atoms: C_14  and  C_15
REMARK                            x       y       z     vdW  Elec       q    Type
REMARK                         _______ _______ _______ _____ _____    ______ ____
ROOT
ATOM      1  C   UNL     1      36.248  56.677  58.037  0.00  0.00    +0.000 A 
ATOM      2  C   UNL     1      36.927  56.655  56.727  0.00  0.00    +0.000 A 
ATOM      3  C   UNL     1      36.409  57.364  55.670  0.00  0.00    +0.000 A 
ATOM      4  O   UNL     1      37.072  57.348  54.441  0.00  0.00    +0.000 OA
ATOM      5  C   UNL     1      35.287  58.078  55.780  0.00  0.00    +0.000 A 
ATOM      6  C   UNL     1      34.578  58.143  56.992  0.00  0.00    +0.000 A 
ATOM      7  C   UNL     1      35.151  57.416  58.067  0.00  0.00    +0.000 A 
ENDROOT
BRANCH   6   8
ATOM      8  C   UNL     1      33.422  58.862  57.273  0.00  0.00    +0.000 C 
ATOM      9  C   UNL     1      32.886  59.823  56.477  0.00  0.00    +0.000 C 
BRANCH   9  10
ATOM     10  C   UNL     1      31.604  60.408  57.072  0.00  0.00    +0.000 A 
ATOM     11  C   UNL     1      30.441  60.435  56.299  0.00  0.00    +0.000 A 
ATOM     12  C   UNL     1      29.250  60.867  56.890  0.00  0.00    +0.000 A 
ATOM     13  C   UNL     1      29.241  61.238  58.179  0.00  0.00    +0.000 A 
ATOM     14  O   UNL     1      28.006  61.638  58.749  0.00  0.00    +0.000 OA
ATOM     15  C   UNL     1      30.328  61.240  58.995  0.00  0.00    +0.000 A 
ATOM     16  C   UNL     1      31.560  60.799  58.373  0.00  0.00    +0.000 A 
ENDBRANCH   9  10
ENDBRANCH   6   8
BRANCH   1  17
ATOM     17  O   UNL     1      36.892  55.871  58.980  0.00  0.00    +0.000 OA
BRANCH  17  20
ATOM     18  C   UNL     1      35.156  52.960  60.143  0.00  0.00    +0.000 C 
ATOM     19  O   UNL     1      35.449  54.354  59.853  0.00  0.00    +0.000 OA
ATOM     20  C   UNL     1      36.299  54.390  58.579  0.00  0.00    +0.000 C 
ATOM     21  C   UNL     1      37.656  53.653  59.525  0.00  0.00    +0.000 C 
ATOM     22  O   UNL     1      38.656  54.008  58.491  0.00  0.00    +0.000 OA
ATOM     23  C   UNL     1      37.332  52.132  58.976  0.00  0.00    +0.000 C 
ATOM     24  O   UNL     1      37.403  51.444  60.316  0.00  0.00    +0.000 OA
ATOM     25  C   UNL     1      35.708  52.021  58.880  0.00  0.00    +0.000 C 
ATOM     26  O   UNL     1      35.425  52.777  57.645  0.00  0.00    +0.000 OA
BRANCH  18  28
ATOM     27  O   UNL     1      33.024  54.049  60.132  0.00  0.00    +0.000 OA
ATOM     28  C   UNL     1      33.602  52.982  59.529  0.00  0.00    +0.000 C 
ENDBRANCH  18  28
ENDBRANCH  17  20
ENDBRANCH   1  17
TORSDOF 5
ENDMDL
MODEL 2
REMARK VINA RESULT:      -7.3      2.287      3.675
REMARK  Name = 
REMARK  5 active torsions:
REMARK  status: ('A' for Active; 'I' for Inactive)
REMARK    1  A    between atoms: C_2  and  C_3
REMARK    2  A    between atoms: C_5  and  O_6
REMARK    3  A    between atoms: O_6  and  C_7
REMARK    4  A    between atoms: C_12  and  C_13
REMARK    5  A    between atoms: C_14  and  C_15
REMARK                            x       y       z     vdW  Elec       q    Type
REMARK                         _______ _______ _______ _____ _____    ______ ____
ROOT
ATOM      1  C   UNL     1      37.443  55.675  60.703  0.00  0.00    +0.000 A 
ATOM      2  C   UNL     1      38.273  56.520  61.583  0.00  0.00    +0.000 A 
ATOM      3  C   UNL     1      38.210  57.890  61.483  0.00  0.00    +0.000 A 
ATOM      4  O   UNL     1      38.989  58.677  62.334  0.00  0.00    +0.000 OA
ATOM      5  C   UNL     1      37.419  58.498  60.597  0.00  0.00    +0.000 A 
ATOM      6  C   UNL     1      36.604  57.763  59.719  0.00  0.00    +0.000 A 
ATOM      7  C   UNL     1      36.679  56.354  59.862  0.00  0.00    +0.000 A 
ENDROOT
BRANCH   6   8
ATOM      8  C   UNL     1      35.710  58.246  58.770  0.00  0.00    +0.000 C 
ATOM      9  C   UNL     1      35.643  57.835  57.478  0.00  0.00    +0.000 C 
BRANCH   9  10
ATOM     10  C   UNL     1      34.538  58.558  56.705  0.00  0.00    +0.000 A 
ATOM     11  C   UNL     1      33.439  59.067  57.400  0.00  0.00    +0.000 A 
ATOM     12  C   UNL     1      32.492  59.823  56.701  0.00  0.00    +0.000 A 
ATOM     13  C   UNL     1      32.657  60.051  55.390  0.00  0.00    +0.000 A 
ATOM     14  O   UNL     1      31.692  60.850  54.726  0.00  0.00    +0.000 OA
ATOM     15  C   UNL     1      33.698  59.592  54.645  0.00  0.00    +0.000 A 
ATOM     16  C   UNL     1      34.669  58.803  55.375  0.00  0.00    +0.000 A 
ENDBRANCH   9  10
ENDBRANCH   6   8
BRANCH   1  17
ATOM     17  O   UNL     1      37.665  54.312  60.917  0.00  0.00    +0.000 OA
BRANCH  17  20
ATOM     18  C   UNL     1      34.542  52.689  60.247  0.00  0.00    +0.000 C 
ATOM     19  O   UNL     1      35.496  53.678  60.719  0.00  0.00    +0.000 OA
ATOM     20  C   UNL     1      36.693  53.655  59.764  0.00  0.00    +0.000 C 
ATOM     21  C   UNL     1      37.118  52.020  60.418  0.00  0.00    +0.000 C 
ATOM     22  O   UNL     1      38.484  52.075  59.846  0.00  0.00    +0.000 OA
ATOM     23  C   UNL     1      36.405  51.232  59.157  0.00  0.00    +0.000 C 
ATOM     24  O   UNL     1      35.652  50.223  59.986  0.00  0.00    +0.000 OA
ATOM     25  C   UNL     1      35.069  52.088  58.783  0.00  0.00    +0.000 C 
ATOM     26  O   UNL     1      35.640  53.233  58.046  0.00  0.00    +0.000 OA
BRANCH  18  28
ATOM     27  O   UNL     1      33.468  54.826  60.363  0.00  0.00    +0.000 OA
ATOM     28  C   UNL     1      33.519  53.780  59.502  0.00  0.00    +0.000 C 
ENDBRANCH  18  28
ENDBRANCH  17  20
ENDBRANCH   1  17
TORSDOF 5
ENDMDL
MODEL 3
REMARK VINA RESULT:      -7.2      3.481      5.724
REMARK  Name = 
REMARK  5 active torsions:
REMARK  status: ('A' for Active; 'I' for Inactive)
REMARK    1  A    between atoms: C_2  and  C_3
REMARK    2  A    between atoms: C_5  and  O_6
REMARK    3  A    between atoms: O_6  and  C_7
REMARK    4  A    between atoms: C_12  and  C_13
REMARK    5  A    between atoms: C_14  and  C_15
REMARK                            x       y       z     vdW  Elec       q    Type
REMARK                         _______ _______ _______ _____ _____    ______ ____
ROOT
ATOM      1  C   UNL     1      37.975  54.164  60.486  0.00  0.00    +0.000 A 
ATOM      2  C   UNL     1      36.886  53.494  61.221  0.00  0.00    +0.000 A 
ATOM      3  C   UNL     1      35.580  53.676  60.835  0.00  0.00    +0.000 A 
ATOM      4  O   UNL     1      34.560  53.022  61.530  0.00  0.00    +0.000 OA
ATOM      5  C   UNL     1      35.249  54.458  59.806  0.00  0.00    +0.000 A 
ATOM      6  C   UNL     1      36.229  55.137  59.060  0.00  0.00    +0.000 A 
ATOM      7  C   UNL     1      37.567  54.911  59.473  0.00  0.00    +0.000 A 
ENDROOT
BRANCH   6   8
ATOM      8  C   UNL     1      36.049  55.955  57.950  0.00  0.00    +0.000 C 
ATOM      9  C   UNL     1      35.572  57.226  57.985  0.00  0.00    +0.000 C 
BRANCH   9  10
ATOM     10  C   UNL     1      35.511  57.852  56.590  0.00  0.00    +0.000 A 
ATOM     11  C   UNL     1      36.418  57.434  55.613  0.00  0.00    +0.000 A 
ATOM     12  C   UNL     1      36.281  57.929  54.313  0.00  0.00    +0.000 A 
ATOM     13  C   UNL     1      35.287  58.782  54.024  0.00  0.00    +0.000 A 
ATOM     14  O   UNL     1      35.164  59.234  52.686  0.00  0.00    +0.000 OA
ATOM     15  C   UNL     1      34.367  59.234  54.918  0.00  0.00    +0.000 A 
ATOM     16  C   UNL     1      34.521  58.724  56.264  0.00  0.00    +0.000 A 
ENDBRANCH   9  10
ENDBRANCH   6   8
BRANCH   1  17
ATOM     17  O   UNL     1      39.230  53.897  61.040  0.00  0.00    +0.000 OA
BRANCH  17  20
ATOM     18  C   UNL     1      40.391  50.593  61.802  0.00  0.00    +0.000 C 
ATOM     19  O   UNL     1      39.623  51.825  61.877  0.00  0.00    +0.000 OA
ATOM     20  C   UNL     1      39.511  52.385  60.456  0.00  0.00    +0.000 C 
ATOM     21  C   UNL     1      41.284  52.752  60.516  0.00  0.00    +0.000 C 
ATOM     22  O   UNL     1      41.203  53.656  59.345  0.00  0.00    +0.000 OA
ATOM     23  C   UNL     1      41.686  51.385  59.686  0.00  0.00    +0.000 C 
ATOM     24  O   UNL     1      42.801  50.948  60.602  0.00  0.00    +0.000 OA
ATOM     25  C   UNL     1      40.661  50.225  60.197  0.00  0.00    +0.000 C 
ATOM     26  O   UNL     1      39.422  50.577  59.476  0.00  0.00    +0.000 OA
BRANCH  18  28
ATOM     27  O   UNL     1      38.510  49.844  63.081  0.00  0.00    +0.000 OA
ATOM     28  C   UNL     1      39.074  49.567  61.880  0.00  0.00    +0.000 C 
ENDBRANCH  18  28
ENDBRANCH  17  20
ENDBRANCH   1  17
TORSDOF 5
ENDMDL
MODEL 4
REMARK VINA RESULT:      -7.2      1.794      2.918
REMARK  Name = 
REMARK  5 active torsions:
REMARK  status: ('A' for Active; 'I' for Inactive)
REMARK    1  A    between atoms: C_2  and  C_3
REMARK    2  A    between atoms: C_5  and  O_6
REMARK    3  A    between atoms: O_6  and  C_7
REMARK    4  A    between atoms: C_12  and  C_13
REMARK    5  A    between atoms: C_14  and  C_15
REMARK                            x       y       z     vdW  Elec       q    Type
REMARK                         _______ _______ _______ _____ _____    ______ ____
ROOT
ATOM      1  C   UNL     1      35.955  57.379  56.162  0.00  0.00    +0.000 A 
ATOM      2  C   UNL     1      36.602  57.635  54.861  0.00  0.00    +0.000 A 
ATOM      3  C   UNL     1      36.063  58.555  53.993  0.00  0.00    +0.000 A 
ATOM      4  O   UNL     1      36.696  58.799  52.772  0.00  0.00    +0.000 OA
ATOM      5  C   UNL     1      34.951  59.232  54.282  0.00  0.00    +0.000 A 
ATOM      6  C   UNL     1      34.272  59.039  55.498  0.00  0.00    +0.000 A 
ATOM      7  C   UNL     1      34.866  58.098  56.378  0.00  0.00    +0.000 A 
ENDROOT
BRANCH   6   8
ATOM      8  C   UNL     1      33.130  59.686  55.955  0.00  0.00    +0.000 C 
ATOM      9  C   UNL     1      32.164  60.219  55.165  0.00  0.00    +0.000 C 
BRANCH   9  10
ATOM     10  C   UNL     1      31.036  60.846  55.987  0.00  0.00    +0.000 A 
ATOM     11  C   UNL     1      29.918  60.075  56.314  0.00  0.00    +0.000 A 
ATOM     12  C   UNL     1      28.947  60.621  57.159  0.00  0.00    +0.000 A 
ATOM     13  C   UNL     1      29.106  61.863  57.643  0.00  0.00    +0.000 A 
ATOM     14  O   UNL     1      28.115  62.367  58.522  0.00  0.00    +0.000 OA
ATOM     15  C   UNL     1      30.163  62.674  57.371  0.00  0.00    +0.000 A 
ATOM     16  C   UNL     1      31.160  62.103  56.489  0.00  0.00    +0.000 A 
ENDBRANCH   9  10
ENDBRANCH   6   8
BRANCH   1  17
ATOM     17  O   UNL     1      36.616  56.388  56.895  0.00  0.00    +0.000 OA
BRANCH  17  20
ATOM     18  C   UNL     1      36.767  56.992  60.423  0.00  0.00    +0.000 C 
ATOM     19  O   UNL     1      36.899  57.205  58.992  0.00  0.00    +0.000 OA
ATOM     20  C   UNL     1      35.771  56.431  58.306  0.00  0.00    +0.000 C 
ATOM     21  C   UNL     1      36.603  54.895  58.784  0.00  0.00    +0.000 C 
ATOM     22  O   UNL     1      35.806  54.088  57.831  0.00  0.00    +0.000 OA
ATOM     23  C   UNL     1      35.630  54.672  60.097  0.00  0.00    +0.000 C 
ATOM     24  O   UNL     1      36.731  54.356  61.078  0.00  0.00    +0.000 OA
ATOM     25  C   UNL     1      35.354  56.155  60.715  0.00  0.00    +0.000 C 
ATOM     26  O   UNL     1      34.352  56.693  59.773  0.00  0.00    +0.000 OA
BRANCH  18  28
ATOM     27  O   UNL     1      36.696  59.338  59.953  0.00  0.00    +0.000 OA
ATOM     28  C   UNL     1      36.038  58.461  60.748  0.00  0.00    +0.000 C 
ENDBRANCH  18  28
ENDBRANCH  17  20
ENDBRANCH   1  17
TORSDOF 5
ENDMDL
MODEL 5
REMARK VINA RESULT:      -6.9      3.975      5.887
REMARK  Name = 
REMARK  5 active torsions:
REMARK  status: ('A' for Active; 'I' for Inactive)
REMARK    1  A    between atoms: C_2  and  C_3
REMARK    2  A    between atoms: C_5  and  O_6
REMARK    3  A    between atoms: O_6  and  C_7
REMARK    4  A    between atoms: C_12  and  C_13
REMARK    5  A    between atoms: C_14  and  C_15
REMARK                            x       y       z     vdW  Elec       q    Type
REMARK                         _______ _______ _______ _____ _____    ______ ____
ROOT
ATOM      1  C   UNL     1      36.265  53.071  58.788  0.00  0.00    +0.000 A 
ATOM      2  C   UNL     1      34.958  52.947  59.461  0.00  0.00    +0.000 A 
ATOM      3  C   UNL     1      34.191  54.065  59.689  0.00  0.00    +0.000 A 
ATOM      4  O   UNL     1      32.948  53.930  60.312  0.00  0.00    +0.000 OA
ATOM      5  C   UNL     1      34.594  55.284  59.328  0.00  0.00    +0.000 A 
ATOM      6  C   UNL     1      35.830  55.486  58.689  0.00  0.00    +0.000 A 
ATOM      7  C   UNL     1      36.587  54.310  58.451  0.00  0.00    +0.000 A 
ENDROOT
BRANCH   6   8
ATOM      8  C   UNL     1      36.373  56.679  58.226  0.00  0.00    +0.000 C 
ATOM      9  C   UNL     1      35.783  57.510  57.329  0.00  0.00    +0.000 C 
BRANCH   9  10
ATOM     10  C   UNL     1      36.641  58.745  57.045  0.00  0.00    +0.000 A 
ATOM     11  C   UNL     1      36.789  59.187  55.729  0.00  0.00    +0.000 A 
ATOM     12  C   UNL     1      37.480  60.379  55.492  0.00  0.00    +0.000 A 
ATOM     13  C   UNL     1      37.979  61.077  56.524  0.00  0.00    +0.000 A 
ATOM     14  O   UNL     1      38.644  62.297  56.244  0.00  0.00    +0.000 OA
ATOM     15  C   UNL     1      37.876  60.714  57.830  0.00  0.00    +0.000 A 
ATOM     16  C   UNL     1      37.166  59.474  58.065  0.00  0.00    +0.000 A 
ENDBRANCH   9  10
ENDBRANCH   6   8
BRANCH   1  17
ATOM     17  O   UNL     1      36.920  51.842  58.676  0.00  0.00    +0.000 OA
BRANCH  17  20
ATOM     18  C   UNL     1      40.459  51.791  59.232  0.00  0.00    +0.000 C 
ATOM     19  O   UNL     1      39.169  52.137  58.660  0.00  0.00    +0.000 OA
ATOM     20  C   UNL     1      38.127  52.032  59.777  0.00  0.00    +0.000 C 
ATOM     21  C   UNL     1      38.357  50.235  59.751  0.00  0.00    +0.000 C 
ATOM     22  O   UNL     1      37.111  49.999  60.517  0.00  0.00    +0.000 OA
ATOM     23  C   UNL     1      39.383  50.258  61.041  0.00  0.00    +0.000 C 
ATOM     24  O   UNL     1      40.435  49.359  60.443  0.00  0.00    +0.000 OA
ATOM     25  C   UNL     1      40.284  51.607  60.881  0.00  0.00    +0.000 C 
ATOM     26  O   UNL     1      39.341  52.655  61.318  0.00  0.00    +0.000 OA
BRANCH  18  28
ATOM     27  O   UNL     1      42.159  53.392  58.703  0.00  0.00    +0.000 OA
ATOM     28  C   UNL     1      40.998  53.364  59.402  0.00  0.00    +0.000 C 
ENDBRANCH  18  28
ENDBRANCH  17  20
ENDBRANCH   1  17
TORSDOF 5
ENDMDL
MODEL 6
REMARK VINA RESULT:      -6.9      5.357     10.418
REMARK  Name = 
REMARK  5 active torsions:
REMARK  status: ('A' for Active; 'I' for Inactive)
REMARK    1  A    between atoms: C_2  and  C_3
REMARK    2  A    between atoms: C_5  and  O_6
REMARK    3  A    between atoms: O_6  and  C_7
REMARK    4  A    between atoms: C_12  and  C_13
REMARK    5  A    between atoms: C_14  and  C_15
REMARK                            x       y       z     vdW  Elec       q    Type
REMARK                         _______ _______ _______ _____ _____    ______ ____
ROOT
ATOM      1  C   UNL     1      35.700  50.133  60.863  0.00  0.00    +0.000 A 
ATOM      2  C   UNL     1      36.431  50.435  62.108  0.00  0.00    +0.000 A 
ATOM      3  C   UNL     1      36.008  49.901  63.302  0.00  0.00    +0.000 A 
ATOM      4  O   UNL     1      36.720  50.182  64.471  0.00  0.00    +0.000 OA
ATOM      5  C   UNL     1      34.936  49.111  63.383  0.00  0.00    +0.000 A 
ATOM      6  C   UNL     1      34.182  48.783  62.243  0.00  0.00    +0.000 A 
ATOM      7  C   UNL     1      34.657  49.335  61.025  0.00  0.00    +0.000 A 
ENDROOT
BRANCH   6   8
ATOM      8  C   UNL     1      33.069  47.955  62.159  0.00  0.00    +0.000 C 
ATOM      9  C   UNL     1      33.090  46.603  62.273  0.00  0.00    +0.000 C 
BRANCH   9  10
ATOM     10  C   UNL     1      31.691  45.997  62.146  0.00  0.00    +0.000 A 
ATOM     11  C   UNL     1      31.558  44.641  61.840  0.00  0.00    +0.000 A 
ATOM     12  C   UNL     1      30.280  44.073  61.837  0.00  0.00    +0.000 A 
ATOM     13  C   UNL     1      29.213  44.831  62.133  0.00  0.00    +0.000 A 
ATOM     14  O   UNL     1      27.939  44.209  62.152  0.00  0.00    +0.000 OA
ATOM     15  C   UNL     1      29.260  46.154  62.441  0.00  0.00    +0.000 A 
ATOM     16  C   UNL     1      30.587  46.736  62.433  0.00  0.00    +0.000 A 
ENDBRANCH   9  10
ENDBRANCH   6   8
BRANCH   1  17
ATOM     17  O   UNL     1      36.246  50.791  59.757  0.00  0.00    +0.000 OA
BRANCH  17  20
ATOM     18  C   UNL     1      35.048  54.061  58.915  0.00  0.00    +0.000 C 
ATOM     19  O   UNL     1      35.055  52.631  59.171  0.00  0.00    +0.000 OA
ATOM     20  C   UNL     1      36.121  52.360  60.237  0.00  0.00    +0.000 C 
ATOM     21  C   UNL     1      37.384  52.778  59.007  0.00  0.00    +0.000 C 
ATOM     22  O   UNL     1      38.465  52.167  59.815  0.00  0.00    +0.000 OA
ATOM     23  C   UNL     1      37.554  54.316  59.574  0.00  0.00    +0.000 C 
ATOM     24  O   UNL     1      37.503  55.003  58.233  0.00  0.00    +0.000 OA
ATOM     25  C   UNL     1      36.062  54.809  60.009  0.00  0.00    +0.000 C 
ATOM     26  O   UNL     1      35.875  54.108  61.294  0.00  0.00    +0.000 OA
BRANCH  18  28
ATOM     27  O   UNL     1      32.775  53.499  59.416  0.00  0.00    +0.000 OA
ATOM     28  C   UNL     1      33.699  54.394  59.843  0.00  0.00    +0.000 C 
ENDBRANCH  18  28
ENDBRANCH  17  20
ENDBRANCH   1  17
TORSDOF 5
ENDMDL
MODEL 7
REMARK VINA RESULT:      -6.9      3.413      5.400
REMARK  Name = 
REMARK  5 active torsions:
REMARK  status: ('A' for Active; 'I' for Inactive)
REMARK    1  A    between atoms: C_2  and  C_3
REMARK    2  A    between atoms: C_5  and  O_6
REMARK    3  A    between atoms: O_6  and  C_7
REMARK    4  A    between atoms: C_12  and  C_13
REMARK    5  A    between atoms: C_14  and  C_15
REMARK                            x       y       z     vdW  Elec       q    Type
REMARK                         _______ _______ _______ _____ _____    ______ ____
ROOT
ATOM      1  C   UNL     1      37.229  53.711  58.797  0.00  0.00    +0.000 A 
ATOM      2  C   UNL     1      36.217  53.303  59.789  0.00  0.00    +0.000 A 
ATOM      3  C   UNL     1      35.102  54.080  59.997  0.00  0.00    +0.000 A 
ATOM      4  O   UNL     1      34.144  53.672  60.928  0.00  0.00    +0.000 OA
ATOM      5  C   UNL     1      34.898  55.216  59.329  0.00  0.00    +0.000 A 
ATOM      6  C   UNL     1      35.820  55.677  58.372  0.00  0.00    +0.000 A 
ATOM      7  C   UNL     1      36.948  54.842  58.169  0.00  0.00    +0.000 A 
ENDROOT
BRANCH   6   8
ATOM      8  C   UNL     1      35.736  56.814  57.577  0.00  0.00    +0.000 C 
ATOM      9  C   UNL     1      36.292  56.951  56.346  0.00  0.00    +0.000 C 
BRANCH   9  10
ATOM     10  C   UNL     1      35.999  58.323  55.736  0.00  0.00    +0.000 A 
ATOM     11  C   UNL     1      37.064  59.151  55.375  0.00  0.00    +0.000 A 
ATOM     12  C   UNL     1      36.788  60.353  54.716  0.00  0.00    +0.000 A 
ATOM     13  C   UNL     1      35.518  60.686  54.438  0.00  0.00    +0.000 A 
ATOM     14  O   UNL     1      35.284  61.897  53.739  0.00  0.00    +0.000 OA
ATOM     15  C   UNL     1      34.431  59.934  54.756  0.00  0.00    +0.000 A 
ATOM     16  C   UNL     1      34.725  58.695  55.446  0.00  0.00    +0.000 A 
ENDBRANCH   9  10
ENDBRANCH   6   8
BRANCH   1  17
ATOM     17  O   UNL     1      38.309  52.825  58.748  0.00  0.00    +0.000 OA
BRANCH  17  20
ATOM     18  C   UNL     1      40.592  53.725  61.358  0.00  0.00    +0.000 C 
ATOM     19  O   UNL     1      39.657  53.855  60.254  0.00  0.00    +0.000 OA
ATOM     20  C   UNL     1      38.670  52.688  60.347  0.00  0.00    +0.000 C 
ATOM     21  C   UNL     1      40.022  51.574  59.889  0.00  0.00    +0.000 C 
ATOM     22  O   UNL     1      39.089  50.470  59.564  0.00  0.00    +0.000 OA
ATOM     23  C   UNL     1      40.311  51.138  61.453  0.00  0.00    +0.000 C 
ATOM     24  O   UNL     1      41.810  51.297  61.403  0.00  0.00    +0.000 OA
ATOM     25  C   UNL     1      40.086  52.481  62.348  0.00  0.00    +0.000 C 
ATOM     26  O   UNL     1      38.613  52.566  62.401  0.00  0.00    +0.000 OA
BRANCH  18  28
ATOM     27  O   UNL     1      39.472  55.838  61.463  0.00  0.00    +0.000 OA
ATOM     28  C   UNL     1      39.869  54.876  62.331  0.00  0.00    +0.000 C 
ENDBRANCH  18  28
ENDBRANCH  17  20
ENDBRANCH   1  17
TORSDOF 5
ENDMDL
MODEL 8
REMARK VINA RESULT:      -6.8      3.024      8.360
REMARK  Name = 
REMARK  5 active torsions:
REMARK  status: ('A' for Active; 'I' for Inactive)
REMARK    1  A    between atoms: C_2  and  C_3
REMARK    2  A    between atoms: C_5  and  O_6
REMARK    3  A    between atoms: O_6  and  C_7
REMARK    4  A    between atoms: C_12  and  C_13
REMARK    5  A    between atoms: C_14  and  C_15
REMARK                            x       y       z     vdW  Elec       q    Type
REMARK                         _______ _______ _______ _____ _____    ______ ____
ROOT
ATOM      1  C   UNL     1      36.282  56.439  57.689  0.00  0.00    +0.000 A 
ATOM      2  C   UNL     1      36.567  57.716  58.372  0.00  0.00    +0.000 A 
ATOM      3  C   UNL     1      36.642  57.761  59.744  0.00  0.00    +0.000 A 
ATOM      4  O   UNL     1      36.929  58.974  60.376  0.00  0.00    +0.000 OA
ATOM      5  C   UNL     1      36.455  56.677  60.498  0.00  0.00    +0.000 A 
ATOM      6  C   UNL     1      36.172  55.426  59.923  0.00  0.00    +0.000 A 
ATOM      7  C   UNL     1      36.121  55.411  58.505  0.00  0.00    +0.000 A 
ENDROOT
BRANCH   6   8
ATOM      8  C   UNL     1      35.985  54.208  60.566  0.00  0.00    +0.000 C 
ATOM      9  C   UNL     1      35.249  53.174  60.084  0.00  0.00    +0.000 C 
BRANCH   9  10
ATOM     10  C   UNL     1      35.260  51.974  61.033  0.00  0.00    +0.000 A 
ATOM     11  C   UNL     1      35.489  52.181  62.395  0.00  0.00    +0.000 A 
ATOM     12  C   UNL     1      35.385  51.095  63.268  0.00  0.00    +0.000 A 
ATOM     13  C   UNL     1      35.062  49.883  62.791  0.00  0.00    +0.000 A 
ATOM     14  O   UNL     1      34.934  48.815  63.714  0.00  0.00    +0.000 OA
ATOM     15  C   UNL     1      34.824  49.602  61.482  0.00  0.00    +0.000 A 
ATOM     16  C   UNL     1      34.943  50.731  60.583  0.00  0.00    +0.000 A 
ENDBRANCH   9  10
ENDBRANCH   6   8
BRANCH   1  17
ATOM     17  O   UNL     1      36.204  56.589  56.301  0.00  0.00    +0.000 OA
BRANCH  17  20
ATOM     18  C   UNL     1      34.062  59.317  55.402  0.00  0.00    +0.000 C 
ATOM     19  O   UNL     1      34.540  58.111  56.058  0.00  0.00    +0.000 OA
ATOM     20  C   UNL     1      36.063  58.223  56.173  0.00  0.00    +0.000 C 
ATOM     21  C   UNL     1      36.162  58.034  54.374  0.00  0.00    +0.000 C 
ATOM     22  O   UNL     1      37.612  57.731  54.420  0.00  0.00    +0.000 OA
ATOM     23  C   UNL     1      36.305  59.657  54.122  0.00  0.00    +0.000 C 
ATOM     24  O   UNL     1      35.285  59.751  53.015  0.00  0.00    +0.000 OA
ATOM     25  C   UNL     1      35.341  60.374  55.223  0.00  0.00    +0.000 C 
ATOM     26  O   UNL     1      36.149  60.260  56.453  0.00  0.00    +0.000 OA
BRANCH  18  28
ATOM     27  O   UNL     1      32.881  59.111  57.474  0.00  0.00    +0.000 OA
ATOM     28  C   UNL     1      33.547  60.078  56.798  0.00  0.00    +0.000 C 
ENDBRANCH  18  28
ENDBRANCH  17  20
ENDBRANCH   1  17
TORSDOF 5
ENDMDL
MODEL 9
REMARK VINA RESULT:      -6.6      3.209      9.471
REMARK  Name = 
REMARK  5 active torsions:
REMARK  status: ('A' for Active; 'I' for Inactive)
REMARK    1  A    between atoms: C_2  and  C_3
REMARK    2  A    between atoms: C_5  and  O_6
REMARK    3  A    between atoms: O_6  and  C_7
REMARK    4  A    between atoms: C_12  and  C_13
REMARK    5  A    between atoms: C_14  and  C_15
REMARK                            x       y       z     vdW  Elec       q    Type
REMARK                         _______ _______ _______ _____ _____    ______ ____
ROOT
ATOM      1  C   UNL     1      36.111  56.898  59.938  0.00  0.00    +0.000 A 
ATOM      2  C   UNL     1      34.787  56.261  60.076  0.00  0.00    +0.000 A 
ATOM      3  C   UNL     1      34.686  54.893  60.164  0.00  0.00    +0.000 A 
ATOM      4  O   UNL     1      33.428  54.306  60.310  0.00  0.00    +0.000 OA
ATOM      5  C   UNL     1      35.759  54.101  60.120  0.00  0.00    +0.000 A 
ATOM      6  C   UNL     1      37.054  54.631  59.983  0.00  0.00    +0.000 A 
ATOM      7  C   UNL     1      37.124  56.046  59.915  0.00  0.00    +0.000 A 
ENDROOT
BRANCH   6   8
ATOM      8  C   UNL     1      38.263  53.946  59.954  0.00  0.00    +0.000 C 
ATOM      9  C   UNL     1      39.013  53.729  58.843  0.00  0.00    +0.000 C 
BRANCH   9  10
ATOM     10  C   UNL     1      40.293  52.954  59.160  0.00  0.00    +0.000 A 
ATOM     11  C   UNL     1      40.502  52.481  60.457  0.00  0.00    +0.000 A 
ATOM     12  C   UNL     1      41.619  51.679  60.709  0.00  0.00    +0.000 A 
ATOM     13  C   UNL     1      42.460  51.373  59.709  0.00  0.00    +0.000 A 
ATOM     14  O   UNL     1      43.562  50.529  59.999  0.00  0.00    +0.000 OA
ATOM     15  C   UNL     1      42.325  51.794  58.423  0.00  0.00    +0.000 A 
ATOM     16  C   UNL     1      41.170  52.631  58.173  0.00  0.00    +0.000 A 
ENDBRANCH   9  10
ENDBRANCH   6   8
BRANCH   1  17
ATOM     17  O   UNL     1      36.019  58.288  59.824  0.00  0.00    +0.000 OA
BRANCH  17  20
ATOM     18  C   UNL     1      36.591  58.785  56.321  0.00  0.00    +0.000 C 
ATOM     19  O   UNL     1      36.678  58.212  57.655  0.00  0.00    +0.000 OA
ATOM     20  C   UNL     1      35.326  58.432  58.339  0.00  0.00    +0.000 C 
ATOM     21  C   UNL     1      35.702  60.203  58.397  0.00  0.00    +0.000 C 
ATOM     22  O   UNL     1      34.637  60.462  59.394  0.00  0.00    +0.000 OA
ATOM     23  C   UNL     1      34.802  60.529  57.055  0.00  0.00    +0.000 C 
ATOM     24  O   UNL     1      35.827  61.391  56.363  0.00  0.00    +0.000 OA
ATOM     25  C   UNL     1      35.018  59.267  56.045  0.00  0.00    +0.000 C 
ATOM     26  O   UNL     1      34.155  58.238  56.658  0.00  0.00    +0.000 OA
BRANCH  18  28
ATOM     27  O   UNL     1      37.379  57.265  54.647  0.00  0.00    +0.000 OA
ATOM     28  C   UNL     1      36.351  57.333  55.528  0.00  0.00    +0.000 C 
ENDBRANCH  18  28
ENDBRANCH  17  20
ENDBRANCH   1  17
TORSDOF 5
ENDMDL
MODEL 10
REMARK VINA RESULT:      -6.6      6.245     11.133
REMARK  Name = 
REMARK  5 active torsions:
REMARK  status: ('A' for Active; 'I' for Inactive)
REMARK    1  A    between atoms: C_2  and  C_3
REMARK    2  A    between atoms: C_5  and  O_6
REMARK    3  A    between atoms: O_6  and  C_7
REMARK    4  A    between atoms: C_12  and  C_13
REMARK    5  A    between atoms: C_14  and  C_15
REMARK                            x       y       z     vdW  Elec       q    Type
REMARK                         _______ _______ _______ _____ _____    ______ ____
ROOT
ATOM      1  C   UNL     1      35.052  49.746  62.012  0.00  0.00    +0.000 A 
ATOM      2  C   UNL     1      36.432  49.276  62.244  0.00  0.00    +0.000 A 
ATOM      3  C   UNL     1      36.670  47.952  62.529  0.00  0.00    +0.000 A 
ATOM      4  O   UNL     1      37.983  47.519  62.729  0.00  0.00    +0.000 OA
ATOM      5  C   UNL     1      35.683  47.059  62.616  0.00  0.00    +0.000 A 
ATOM      6  C   UNL     1      34.342  47.430  62.416  0.00  0.00    +0.000 A 
ATOM      7  C   UNL     1      34.133  48.798  62.104  0.00  0.00    +0.000 A 
ENDROOT
BRANCH   6   8
ATOM      8  C   UNL     1      33.214  46.619  62.441  0.00  0.00    +0.000 C 
ATOM      9  C   UNL     1      31.962  47.008  62.087  0.00  0.00    +0.000 C 
BRANCH   9  10
ATOM     10  C   UNL     1      30.951  45.867  62.216  0.00  0.00    +0.000 A 
ATOM     11  C   UNL     1      29.694  46.126  62.766  0.00  0.00    +0.000 A 
ATOM     12  C   UNL     1      28.739  45.105  62.776  0.00  0.00    +0.000 A 
ATOM     13  C   UNL     1      29.040  43.905  62.256  0.00  0.00    +0.000 A 
ATOM     14  O   UNL     1      28.034  42.907  62.255  0.00  0.00    +0.000 OA
ATOM     15  C   UNL     1      30.239  43.576  61.704  0.00  0.00    +0.000 A 
ATOM     16  C   UNL     1      31.224  44.637  61.706  0.00  0.00    +0.000 A 
ENDBRANCH   9  10
ENDBRANCH   6   8
BRANCH   1  17
ATOM     17  O   UNL     1      34.996  51.122  61.775  0.00  0.00    +0.000 OA
BRANCH  17  20
ATOM     18  C   UNL     1      37.306  53.347  60.177  0.00  0.00    +0.000 C 
ATOM     19  O   UNL     1      36.624  52.602  61.223  0.00  0.00    +0.000 OA
ATOM     20  C   UNL     1      36.146  51.283  60.609  0.00  0.00    +0.000 C 
ATOM     21  C   UNL     1      34.946  52.230  59.637  0.00  0.00    +0.000 C 
ATOM     22  O   UNL     1      34.163  51.017  59.302  0.00  0.00    +0.000 OA
ATOM     23  C   UNL     1      35.901  52.228  58.292  0.00  0.00    +0.000 C 
ATOM     24  O   UNL     1      35.756  53.695  57.974  0.00  0.00    +0.000 OA
ATOM     25  C   UNL     1      37.434  52.380  58.824  0.00  0.00    +0.000 C 
ATOM     26  O   UNL     1      37.722  51.018  59.313  0.00  0.00    +0.000 OA
BRANCH  18  28
ATOM     27  O   UNL     1      39.595  54.037  60.312  0.00  0.00    +0.000 OA
ATOM     28  C   UNL     1      38.854  52.962  60.676  0.00  0.00    +0.000 C 
ENDBRANCH  18  28
ENDBRANCH  17  20
ENDBRANCH   1  17
TORSDOF 5
ENDMDL
