REMARK  Name = 
REMARK  7 active torsions:
REMARK  status: ('A' for Active; 'I' for Inactive)
REMARK    1  A    between atoms: O_2  and  C_3
REMARK    2  A    between atoms: C_6  and  C_7
REMARK    3  A    between atoms: C_8  and  C_9
REMARK    4  A    between atoms: C_11  and  O_12
REMARK    5  A    between atoms: C_14  and  O_15
REMARK    6  A    between atoms: C_17  and  O_18
REMARK    7  A    between atoms: C_22  and  N_23
REMARK                            x       y       z     vdW  Elec       q    Type
REMARK                         _______ _______ _______ _____ _____    ______ ____
ROOT
ATOM      1  C   UNL     1      -0.819  -2.149   0.804  0.00  0.00    +0.000 C 
ATOM      2  C   UNL     1       0.340  -2.124   1.239  0.00  0.00    +0.000 C 
ENDROOT
BRANCH   1   6
ATOM      3  C   UNL     1      -3.054   0.628  -1.437  0.00  0.00    +0.000 A 
ATOM      4  C   UNL     1      -1.775   0.948  -1.099  0.00  0.00    +0.000 A 
ATOM      5  C   UNL     1      -1.041   0.029  -0.359  0.00  0.00    +0.000 A 
ATOM      6  C   UNL     1      -1.482  -1.162   0.059  0.00  0.00    +0.000 A 
ATOM      7  C   UNL     1      -2.802  -1.462  -0.305  0.00  0.00    +0.000 A 
ATOM      8  C   UNL     1      -3.553  -0.572  -1.037  0.00  0.00    +0.000 A 
BRANCH   8   9
ATOM      9  N   UNL     1      -4.888  -0.902  -1.392  0.00  0.00    +0.000 N 
ATOM     10  O   UNL     1      -5.390  -0.498  -2.434  0.00  0.00    +0.000 OA
ATOM     11  O   UNL     1      -5.598  -1.692  -0.523  0.00  0.00    +0.000 OA
ENDBRANCH   8   9
BRANCH   3  13
ATOM     12  C   UNL     1      -3.319   2.774  -2.601  0.00  0.00    +0.000 C 
ATOM     13  O   UNL     1      -3.810   1.524  -2.174  0.00  0.00    +0.000 OA
ENDBRANCH   3  13
ENDBRANCH   1   6
BRANCH   2  14
ATOM     14  C   UNL     1       1.289  -1.076   1.087  0.00  0.00    +0.000 A 
ATOM     15  C   UNL     1       1.261   0.125   0.482  0.00  0.00    +0.000 A 
ATOM     16  C   UNL     1       2.243   1.054   0.401  0.00  0.00    +0.000 A 
ATOM     17  C   UNL     1       3.458   0.751   1.018  0.00  0.00    +0.000 A 
ATOM     18  C   UNL     1       3.562  -0.471   1.663  0.00  0.00    +0.000 A 
ATOM     19  C   UNL     1       2.526  -1.370   1.709  0.00  0.00    +0.000 A 
BRANCH  16  20
ATOM     20  O   UNL     1       2.148   2.272  -0.239  0.00  0.00    +0.000 OA
ATOM     21  C   UNL     1       1.050   2.788  -0.916  0.00  0.00    +0.000 C 
ENDBRANCH  16  20
BRANCH  17  22
ATOM     22  O   UNL     1       4.490   1.671   0.960  0.00  0.00    +0.000 OA
ATOM     23  C   UNL     1       5.420   1.624  -0.115  0.00  0.00    +0.000 C 
ENDBRANCH  17  22
BRANCH  18  24
ATOM     24  O   UNL     1       4.785  -0.738   2.266  0.00  0.00    +0.000 OA
ATOM     25  C   UNL     1       4.957  -1.971   2.942  0.00  0.00    +0.000 C 
ENDBRANCH  18  24
ENDBRANCH   2  14
TORSDOF 7
