REMARK  Name = 
REMARK  5 active torsions:
REMARK  status: ('A' for Active; 'I' for Inactive)
REMARK    1  A    between atoms: O_2  and  C_3
REMARK    2  A    between atoms: C_5  and  C_6
REMARK    3  A    between atoms: C_7  and  C_8
REMARK    4  A    between atoms: C_7  and  C_10
REMARK    5  A    between atoms: C_12  and  O_13
REMARK                            x       y       z     vdW  Elec       q    Type
REMARK                         _______ _______ _______ _____ _____    ______ ____
ROOT
ATOM      1  C   UNL     1      -0.355   0.696  -0.100  0.00  0.00    +0.000 C 
ATOM      2  C   UNL     1       0.436  -0.290   0.296  0.00  0.00    +0.000 C 
ENDROOT
BRANCH   1   5
ATOM      3  C   UNL     1      -3.982   1.531   0.306  0.00  0.00    +0.000 A 
ATOM      4  C   UNL     1      -2.623   1.617   0.260  0.00  0.00    +0.000 A 
ATOM      5  C   UNL     1      -1.804   0.550  -0.066  0.00  0.00    +0.000 A 
ATOM      6  C   UNL     1      -2.452  -0.641  -0.351  0.00  0.00    +0.000 A 
ATOM      7  C   UNL     1      -3.826  -0.749  -0.310  0.00  0.00    +0.000 A 
ATOM      8  C   UNL     1      -4.596   0.331   0.017  0.00  0.00    +0.000 A 
ATOM      9  O   UNL     1      -5.943  -0.036  -0.013  0.00  0.00    +0.000 OA
ATOM     10  C   UNL     1      -5.996  -1.460  -0.043  0.00  0.00    +0.000 C 
ATOM     11  O   UNL     1      -4.718  -1.807  -0.548  0.00  0.00    +0.000 OA
BRANCH   3  13
ATOM     12  C   UNL     1      -4.199   3.876   0.944  0.00  0.00    +0.000 C 
ATOM     13  O   UNL     1      -4.791   2.606   0.634  0.00  0.00    +0.000 OA
ENDBRANCH   3  13
ENDBRANCH   1   5
BRANCH   2  14
ATOM     14  C   UNL     1       1.895  -0.162   0.270  0.00  0.00    +0.000 A 
ATOM     15  C   UNL     1       2.658  -1.228   0.697  0.00  0.00    +0.000 A 
ATOM     16  C   UNL     1       4.049  -1.179   0.699  0.00  0.00    +0.000 A 
ATOM     17  C   UNL     1       4.687  -0.037   0.265  0.00  0.00    +0.000 A 
ATOM     18  C   UNL     1       3.923   1.040  -0.166  0.00  0.00    +0.000 A 
ATOM     19  C   UNL     1       2.529   0.968  -0.159  0.00  0.00    +0.000 A 
ATOM     20  O   UNL     1       4.827   2.026  -0.536  0.00  0.00    +0.000 OA
ATOM     21  C   UNL     1       6.147   1.667  -0.201  0.00  0.00    +0.000 C 
ATOM     22  O   UNL     1       6.036   0.308   0.151  0.00  0.00    +0.000 OA
BRANCH  16  23
ATOM     23  O   UNL     1       4.835  -2.242   1.125  0.00  0.00    +0.000 OA
ATOM     24  C   UNL     1       4.150  -3.413   1.571  0.00  0.00    +0.000 C 
ENDBRANCH  16  23
ENDBRANCH   2  14
BRANCH   2  25
ATOM     25  C   UNL     1      -0.195  -1.494   0.755  0.00  0.00    +0.000 C 
ATOM     26  N   UNL     1      -0.693  -2.477   1.141  0.00  0.00    +0.000 NA
ENDBRANCH   2  25
TORSDOF 5
