REMARK  Name = 
REMARK  4 active torsions:
REMARK  status: ('A' for Active; 'I' for Inactive)
REMARK    1  A    between atoms: O_2  and  C_3
REMARK    2  A    between atoms: C_6  and  C_7
REMARK    3  A    between atoms: C_8  and  C_9
REMARK    4  A    between atoms: C_11  and  O_12
REMARK                            x       y       z     vdW  Elec       q    Type
REMARK                         _______ _______ _______ _____ _____    ______ ____
ROOT
ATOM      1  C   UNL     1       1.037  -0.228  -2.331  0.00  0.00    +0.000 C 
ATOM      2  C   UNL     1      -0.165  -0.552  -2.403  0.00  0.00    +0.000 C 
ENDROOT
BRANCH   2   3
ATOM      3  C   UNL     1      -1.086  -0.558  -1.291  0.00  0.00    +0.000 A 
ATOM      4  C   UNL     1      -2.407  -0.958  -1.579  0.00  0.00    +0.000 A 
ATOM      5  C   UNL     1      -3.358  -1.001  -0.611  0.00  0.00    +0.000 A 
ATOM      6  C   UNL     1      -3.087  -0.660   0.698  0.00  0.00    +0.000 A 
ATOM      7  C   UNL     1      -1.806  -0.267   1.010  0.00  0.00    +0.000 A 
ATOM      8  C   UNL     1      -0.881  -0.237   0.007  0.00  0.00    +0.000 A 
ATOM      9  O   UNL     1      -1.802   0.017   2.376  0.00  0.00    +0.000 OA
ATOM     10  C   UNL     1      -3.135   0.028   2.840  0.00  0.00    +0.000 C 
ATOM     11  O   UNL     1      -3.890  -0.633   1.828  0.00  0.00    +0.000 OA
BRANCH   5  12
ATOM     12  O   UNL     1      -4.654  -1.401  -0.935  0.00  0.00    +0.000 OA
ATOM     13  C   UNL     1      -5.048  -1.770  -2.225  0.00  0.00    +0.000 C 
ENDBRANCH   5  12
ENDBRANCH   2   3
BRANCH   1  17
ATOM     14  C   UNL     1       3.601   1.078   0.791  0.00  0.00    +0.000 A 
ATOM     15  C   UNL     1       2.281   0.799   1.085  0.00  0.00    +0.000 A 
ATOM     16  C   UNL     1       1.439   0.374   0.076  0.00  0.00    +0.000 A 
ATOM     17  C   UNL     1       1.775   0.193  -1.211  0.00  0.00    +0.000 A 
ATOM     18  C   UNL     1       3.126   0.481  -1.499  0.00  0.00    +0.000 A 
ATOM     19  C   UNL     1       3.982   0.904  -0.521  0.00  0.00    +0.000 A 
ATOM     20  O   UNL     1       5.306   1.170  -0.878  0.00  0.00    +0.000 OA
BRANCH  14  22
ATOM     21  C   UNL     1       4.242   1.714   3.071  0.00  0.00    +0.000 C 
ATOM     22  O   UNL     1       4.529   1.506   1.706  0.00  0.00    +0.000 OA
ENDBRANCH  14  22
ENDBRANCH   1  17
TORSDOF 4
