REMARK  Name = 
REMARK  8 active torsions:
REMARK  status: ('A' for Active; 'I' for Inactive)
REMARK    1  A    between atoms: O_2  and  C_3
REMARK    2  A    between atoms: C_5  and  C_6
REMARK    3  A    between atoms: C_7  and  C_8
REMARK    4  A    between atoms: C_10  and  O_11
REMARK    5  A    between atoms: C_13  and  O_14
REMARK    6  A    between atoms: C_16  and  O_17
REMARK    7  A    between atoms: C_21  and  O_22
REMARK    8  A    between atoms: C_24  and  O_25
REMARK                            x       y       z     vdW  Elec       q    Type
REMARK                         _______ _______ _______ _____ _____    ______ ____
ROOT
ATOM      1  C   UNL     1      -0.528   2.579  -0.314  0.00  0.00    +0.000 C 
ATOM      2  C   UNL     1       0.721   2.500  -0.429  0.00  0.00    +0.000 C 
ENDROOT
BRANCH   1   5
ATOM      3  C   UNL     1      -3.677   0.846   0.461  0.00  0.00    +0.000 A 
ATOM      4  C   UNL     1      -2.696   1.794   0.364  0.00  0.00    +0.000 A 
ATOM      5  C   UNL     1      -1.420   1.485  -0.133  0.00  0.00    +0.000 A 
ATOM      6  C   UNL     1      -1.229   0.187  -0.510  0.00  0.00    +0.000 A 
ATOM      7  C   UNL     1      -2.205  -0.777  -0.421  0.00  0.00    +0.000 A 
ATOM      8  C   UNL     1      -3.474  -0.460   0.077  0.00  0.00    +0.000 A 
BRANCH   3  10
ATOM      9  C   UNL     1      -5.189   2.492   1.362  0.00  0.00    +0.000 C 
ATOM     10  O   UNL     1      -4.949   1.160   0.960  0.00  0.00    +0.000 OA
ENDBRANCH   3  10
BRANCH   7  11
ATOM     11  O   UNL     1      -2.042  -2.101  -0.807  0.00  0.00    +0.000 OA
ATOM     12  C   UNL     1      -0.853  -2.616  -1.361  0.00  0.00    +0.000 C 
ENDBRANCH   7  11
BRANCH   8  13
ATOM     13  O   UNL     1      -4.468  -1.426   0.173  0.00  0.00    +0.000 OA
ATOM     14  C   UNL     1      -5.337  -1.622  -0.927  0.00  0.00    +0.000 C 
ENDBRANCH   8  13
ENDBRANCH   1   5
BRANCH   2  15
ATOM     15  C   UNL     1       1.523   1.335  -0.386  0.00  0.00    +0.000 A 
ATOM     16  C   UNL     1       2.813   1.472  -0.920  0.00  0.00    +0.000 A 
ATOM     17  C   UNL     1       3.733   0.454  -0.833  0.00  0.00    +0.000 A 
ATOM     18  C   UNL     1       3.420  -0.737  -0.216  0.00  0.00    +0.000 A 
ATOM     19  C   UNL     1       2.146  -0.914   0.331  0.00  0.00    +0.000 A 
ATOM     20  C   UNL     1       1.283   0.133   0.208  0.00  0.00    +0.000 A 
BRANCH  17  21
ATOM     21  O   UNL     1       5.014   0.571  -1.357  0.00  0.00    +0.000 OA
ATOM     22  C   UNL     1       5.418   1.761  -2.008  0.00  0.00    +0.000 C 
ENDBRANCH  17  21
BRANCH  18  23
ATOM     23  O   UNL     1       4.336  -1.793  -0.111  0.00  0.00    +0.000 OA
ATOM     24  C   UNL     1       5.150  -1.775   1.063  0.00  0.00    +0.000 C 
ENDBRANCH  18  23
BRANCH  19  25
ATOM     25  O   UNL     1       1.867  -2.120   0.954  0.00  0.00    +0.000 OA
ATOM     26  C   UNL     1       0.645  -2.427   1.570  0.00  0.00    +0.000 C 
ENDBRANCH  19  25
ENDBRANCH   2  15
TORSDOF 8
