REMARK  Name = 
REMARK  4 active torsions:
REMARK  status: ('A' for Active; 'I' for Inactive)
REMARK    1  A    between atoms: C_2  and  O_4
REMARK    2  A    between atoms: O_4  and  C_5
REMARK    3  A    between atoms: C_8  and  C_9
REMARK    4  A    between atoms: C_10  and  C_11
REMARK                            x       y       z     vdW  Elec       q    Type
REMARK                         _______ _______ _______ _____ _____    ______ ____
ROOT
ATOM      1  C   UNL     1       3.754  -0.160   0.546  0.00  0.00    +0.000 A 
ATOM      2  C   UNL     1       2.862   0.653   1.216  0.00  0.00    +0.000 A 
ATOM      3  C   UNL     1       1.501   0.577   1.018  0.00  0.00    +0.000 A 
ATOM      4  C   UNL     1       0.964  -0.328   0.128  0.00  0.00    +0.000 A 
ATOM      5  C   UNL     1       1.839  -1.149  -0.551  0.00  0.00    +0.000 A 
ATOM      6  C   UNL     1       3.210  -1.067  -0.346  0.00  0.00    +0.000 A 
ENDROOT
BRANCH   4   7
ATOM      7  C   UNL     1      -0.456  -0.464  -0.132  0.00  0.00    +0.000 C 
ATOM      8  C   UNL     1      -1.388   0.250   0.443  0.00  0.00    +0.000 C 
BRANCH   8   9
ATOM      9  C   UNL     1      -2.808   0.087   0.159  0.00  0.00    +0.000 A 
ATOM     10  C   UNL     1      -3.232  -0.859  -0.759  0.00  0.00    +0.000 A 
ATOM     11  C   UNL     1      -4.565  -1.043  -1.055  0.00  0.00    +0.000 A 
ATOM     12  O   UNL     1      -4.958  -1.997  -1.976  0.00  0.00    +0.000 OA
ATOM     13  C   UNL     1      -5.539  -0.287  -0.445  0.00  0.00    +0.000 A 
ATOM     14  C   UNL     1      -5.134   0.662   0.474  0.00  0.00    +0.000 A 
ATOM     15  O   UNL     1      -6.123   1.415   1.079  0.00  0.00    +0.000 OA
ATOM     16  C   UNL     1      -3.782   0.845   0.770  0.00  0.00    +0.000 A 
ENDBRANCH   8   9
ENDBRANCH   4   7
BRANCH   1  17
ATOM     17  O   UNL     1       5.127  -0.086   0.743  0.00  0.00    +0.000 OA
BRANCH  17  19
ATOM     18  C   UNL     1       7.392   0.749   0.284  0.00  0.00    +0.000 C 
ATOM     19  C   UNL     1       5.941   0.754  -0.016  0.00  0.00    +0.000 C 
ATOM     20  O   UNL     1       5.395   1.447  -0.887  0.00  0.00    +0.000 OA
ENDBRANCH  17  19
ENDBRANCH   1  17
TORSDOF 4
