REMARK  Name = 
REMARK  7 active torsions:
REMARK  status: ('A' for Active; 'I' for Inactive)
REMARK    1  A    between atoms: O_2  and  C_3
REMARK    2  A    between atoms: C_5  and  C_6
REMARK    3  A    between atoms: C_7  and  O_8
REMARK    4  A    between atoms: C_7  and  C_12
REMARK    5  A    between atoms: O_8  and  C_9
REMARK    6  A    between atoms: C_22  and  O_23
REMARK    7  A    between atoms: C_25  and  O_26
REMARK                            x       y       z     vdW  Elec       q    Type
REMARK                         _______ _______ _______ _____ _____    ______ ____
ROOT
ATOM      1  C   UNL     1      -0.096   0.675   0.434  0.00  0.00    +0.000 C 
ATOM      2  C   UNL     1      -0.930  -0.344   0.341  0.00  0.00    +0.000 C 
ENDROOT
BRANCH   2   3
ATOM      3  C   UNL     1      -2.347  -0.235   0.586  0.00  0.00    +0.000 A 
ATOM      4  C   UNL     1      -3.137  -1.356   0.488  0.00  0.00    +0.000 A 
ATOM      5  C   UNL     1      -4.519  -1.339   0.700  0.00  0.00    +0.000 A 
ATOM      6  C   UNL     1      -5.085  -0.119   1.021  0.00  0.00    +0.000 A 
ATOM      7  C   UNL     1      -4.337   1.000   1.124  0.00  0.00    +0.000 A 
ATOM      8  C   UNL     1      -2.957   0.945   0.905  0.00  0.00    +0.000 A 
ATOM      9  O   UNL     1      -5.180   2.048   1.454  0.00  0.00    +0.000 OA
ATOM     10  C   UNL     1      -6.467   1.518   1.733  0.00  0.00    +0.000 C 
ATOM     11  O   UNL     1      -6.427   0.174   1.281  0.00  0.00    +0.000 OA
ENDBRANCH   2   3
BRANCH   1  14
ATOM     12  C   UNL     1       3.489   1.554  -0.219  0.00  0.00    +0.000 A 
ATOM     13  C   UNL     1       2.133   1.614   0.045  0.00  0.00    +0.000 A 
ATOM     14  C   UNL     1       1.321   0.500   0.169  0.00  0.00    +0.000 A 
ATOM     15  C   UNL     1       1.938  -0.715   0.011  0.00  0.00    +0.000 A 
ATOM     16  C   UNL     1       3.293  -0.822  -0.256  0.00  0.00    +0.000 A 
ATOM     17  C   UNL     1       4.056   0.317  -0.368  0.00  0.00    +0.000 A 
BRANCH  12  19
ATOM     18  C   UNL     1       3.587   3.951  -0.149  0.00  0.00    +0.000 C 
ATOM     19  O   UNL     1       4.267   2.717  -0.330  0.00  0.00    +0.000 OA
ENDBRANCH  12  19
BRANCH  16  20
ATOM     20  O   UNL     1       3.952  -2.025  -0.424  0.00  0.00    +0.000 OA
ATOM     21  C   UNL     1       3.259  -3.249  -0.331  0.00  0.00    +0.000 C 
ENDBRANCH  16  20
BRANCH  17  22
ATOM     22  O   UNL     1       5.426   0.288  -0.634  0.00  0.00    +0.000 OA
ATOM     23  C   UNL     1       5.949   0.318  -1.946  0.00  0.00    +0.000 C 
ENDBRANCH  17  22
ENDBRANCH   1  14
BRANCH   2  24
ATOM     24  O   UNL     1      -0.341  -1.567  -0.022  0.00  0.00    +0.000 OA
BRANCH  24  25
ATOM     25  C   UNL     1      -0.317  -1.814  -1.405  0.00  0.00    +0.000 C 
ATOM     26  C   UNL     1       0.267  -3.052  -1.988  0.00  0.00    +0.000 C 
ATOM     27  O   UNL     1      -0.798  -0.981  -2.218  0.00  0.00    +0.000 OA
ENDBRANCH  24  25
ENDBRANCH   2  24
TORSDOF 7
