REMARK  Name = 
REMARK  5 active torsions:
REMARK  status: ('A' for Active; 'I' for Inactive)
REMARK    1  A    between atoms: O_2  and  C_3
REMARK    2  A    between atoms: C_5  and  C_6
REMARK    3  A    between atoms: C_7  and  C_8
REMARK    4  A    between atoms: C_11  and  O_12
REMARK    5  A    between atoms: C_18  and  O_19
REMARK                            x       y       z     vdW  Elec       q    Type
REMARK                         _______ _______ _______ _____ _____    ______ ____
ROOT
ATOM      1  C   UNL     1      -0.246   0.526   0.375  0.00  0.00    +0.000 C 
ATOM      2  C   UNL     1       0.435  -0.462  -0.142  0.00  0.00    +0.000 C 
ENDROOT
BRANCH   2   3
ATOM      3  C   UNL     1       1.892  -0.574  -0.079  0.00  0.00    +0.000 A 
ATOM      4  C   UNL     1       2.687   0.357   0.535  0.00  0.00    +0.000 A 
ATOM      5  C   UNL     1       4.035   0.214   0.571  0.00  0.00    +0.000 A 
ATOM      6  C   UNL     1       4.644  -0.871  -0.009  0.00  0.00    +0.000 A 
ATOM      7  C   UNL     1       3.843  -1.789  -0.615  0.00  0.00    +0.000 A 
ATOM      8  O   UNL     1       4.415  -2.918  -1.224  0.00  0.00    +0.000 OA
ATOM      9  C   UNL     1       2.476  -1.667  -0.665  0.00  0.00    +0.000 A 
BRANCH   6  10
ATOM     10  O   UNL     1       6.019  -1.075  -0.007  0.00  0.00    +0.000 OA
ATOM     11  C   UNL     1       6.908  -0.175   0.597  0.00  0.00    +0.000 C 
ENDBRANCH   6  10
ENDBRANCH   2   3
BRANCH   1  14
ATOM     12  C   UNL     1      -3.844  -0.278  -0.412  0.00  0.00    +0.000 A 
ATOM     13  C   UNL     1      -2.475  -0.351  -0.334  0.00  0.00    +0.000 A 
ATOM     14  C   UNL     1      -1.708   0.605   0.292  0.00  0.00    +0.000 A 
ATOM     15  C   UNL     1      -2.361   1.678   0.861  0.00  0.00    +0.000 A 
ATOM     16  C   UNL     1      -3.746   1.803   0.811  0.00  0.00    +0.000 A 
ATOM     17  C   UNL     1      -4.465   0.817   0.172  0.00  0.00    +0.000 A 
BRANCH  12  19
ATOM     18  C   UNL     1      -5.931  -1.312  -1.199  0.00  0.00    +0.000 C 
ATOM     19  O   UNL     1      -4.545  -1.284  -1.060  0.00  0.00    +0.000 OA
ENDBRANCH  12  19
BRANCH  16  20
ATOM     20  O   UNL     1      -4.404   2.882   1.383  0.00  0.00    +0.000 OA
ATOM     21  C   UNL     1      -3.629   3.874   2.030  0.00  0.00    +0.000 C 
ENDBRANCH  16  20
ENDBRANCH   1  14
TORSDOF 5
