REMARK  Name = 
REMARK  5 active torsions:
REMARK  status: ('A' for Active; 'I' for Inactive)
REMARK    1  A    between atoms: C_2  and  C_3
REMARK    2  A    between atoms: C_5  and  O_6
REMARK    3  A    between atoms: O_6  and  C_7
REMARK    4  A    between atoms: C_12  and  C_13
REMARK    5  A    between atoms: C_14  and  C_15
REMARK                            x       y       z     vdW  Elec       q    Type
REMARK                         _______ _______ _______ _____ _____    ______ ____
ROOT
ATOM      1  C   UNL     1      -0.978  -0.196  -0.026  0.00  0.00    +0.000 A 
ATOM      2  C   UNL     1      -1.359  -1.202   0.827  0.00  0.00    +0.000 A 
ATOM      3  C   UNL     1      -0.446  -2.007   1.449  0.00  0.00    +0.000 A 
ATOM      4  O   UNL     1      -0.916  -3.009   2.302  0.00  0.00    +0.000 OA
ATOM      5  C   UNL     1       0.909  -1.856   1.256  0.00  0.00    +0.000 A 
ATOM      6  C   UNL     1       1.312  -0.846   0.401  0.00  0.00    +0.000 A 
ATOM      7  C   UNL     1       0.377  -0.042  -0.220  0.00  0.00    +0.000 A 
ENDROOT
BRANCH   6   8
ATOM      8  C   UNL     1       2.695  -0.570   0.104  0.00  0.00    +0.000 C 
ATOM      9  C   UNL     1       3.741  -1.173   0.552  0.00  0.00    +0.000 C 
BRANCH   9  10
ATOM     10  C   UNL     1       5.079  -0.784   0.165  0.00  0.00    +0.000 A 
ATOM     11  C   UNL     1       5.254   0.261  -0.710  0.00  0.00    +0.000 A 
ATOM     12  C   UNL     1       6.505   0.684  -1.122  0.00  0.00    +0.000 A 
ATOM     13  C   UNL     1       7.628   0.071  -0.669  0.00  0.00    +0.000 A 
ATOM     14  O   UNL     1       8.885   0.497  -1.083  0.00  0.00    +0.000 OA
ATOM     15  C   UNL     1       7.488  -0.982   0.210  0.00  0.00    +0.000 A 
ATOM     16  C   UNL     1       6.217  -1.403   0.621  0.00  0.00    +0.000 A 
ENDBRANCH   9  10
ENDBRANCH   6   8
BRANCH   1  17
ATOM     17  O   UNL     1      -1.839   0.643  -0.678  0.00  0.00    +0.000 OA
BRANCH  17  20
ATOM     18  C   UNL     1      -5.169   1.340  -1.603  0.00  0.00    +0.000 C 
ATOM     19  O   UNL     1      -3.719   1.560  -1.346  0.00  0.00    +0.000 OA
ATOM     20  C   UNL     1      -3.338   0.434  -0.431  0.00  0.00    +0.000 C 
ATOM     21  C   UNL     1      -3.443   1.319   1.035  0.00  0.00    +0.000 C 
ATOM     22  O   UNL     1      -2.684   2.528   0.629  0.00  0.00    +0.000 OA
ATOM     23  C   UNL     1      -4.926   2.060   0.719  0.00  0.00    +0.000 C 
ATOM     24  O   UNL     1      -5.499   1.675   2.038  0.00  0.00    +0.000 OA
ATOM     25  C   UNL     1      -5.550   0.705  -0.074  0.00  0.00    +0.000 C 
ATOM     26  O   UNL     1      -6.921   1.311  -0.110  0.00  0.00    +0.000 OA
BRANCH  18  28
ATOM     27  O   UNL     1      -4.367  -0.995  -1.809  0.00  0.00    +0.000 OA
ATOM     28  C   UNL     1      -4.934  -0.025  -2.421  0.00  0.00    +0.000 C 
ENDBRANCH  18  28
ENDBRANCH  17  20
ENDBRANCH   1  17
TORSDOF 5
