MODEL 1
REMARK VINA RESULT:      -5.9      0.000      0.000
REMARK  Name = 
REMARK  7 active torsions:
REMARK  status: ('A' for Active; 'I' for Inactive)
REMARK    1  A    between atoms: O_2  and  C_3
REMARK    2  A    between atoms: C_6  and  C_7
REMARK    3  A    between atoms: C_7  and  C_8
REMARK    4  A    between atoms: C_10  and  C_11
REMARK    5  A    between atoms: C_13  and  O_14
REMARK    6  A    between atoms: C_16  and  O_17
REMARK    7  A    between atoms: C_19  and  O_20
REMARK                            x       y       z     vdW  Elec       q    Type
REMARK                         _______ _______ _______ _____ _____    ______ ____
ROOT
ATOM      1  C   UNL     1      35.714  56.536  58.057  0.00  0.00    +0.000 C 
ATOM      2  C   UNL     1      36.457  55.564  57.633  0.00  0.00    +0.000 C 
ENDROOT
BRANCH   1   6
ATOM      3  C   UNL     1      34.524  59.493  55.245  0.00  0.00    +0.000 A 
ATOM      4  C   UNL     1      35.600  58.642  54.959  0.00  0.00    +0.000 A 
ATOM      5  C   UNL     1      35.921  57.722  55.930  0.00  0.00    +0.000 A 
ATOM      6  C   UNL     1      35.274  57.593  57.115  0.00  0.00    +0.000 A 
ATOM      7  C   UNL     1      34.231  58.420  57.390  0.00  0.00    +0.000 A 
ATOM      8  C   UNL     1      33.852  59.384  56.439  0.00  0.00    +0.000 A 
BRANCH   3  10
ATOM      9  C   UNL     1      35.227  61.297  53.828  0.00  0.00    +0.000 C 
ATOM     10  O   UNL     1      34.217  60.410  54.253  0.00  0.00    +0.000 OA
ENDBRANCH   3  10
ENDBRANCH   1   6
BRANCH   2  11
ATOM     11  C   UNL     1      36.946  54.479  58.455  0.00  0.00    +0.000 A 
ATOM     12  C   UNL     1      36.163  53.319  58.480  0.00  0.00    +0.000 A 
ATOM     13  C   UNL     1      36.503  52.196  59.204  0.00  0.00    +0.000 A 
ATOM     14  C   UNL     1      37.676  52.204  59.950  0.00  0.00    +0.000 A 
ATOM     15  C   UNL     1      38.462  53.333  59.941  0.00  0.00    +0.000 A 
ATOM     16  C   UNL     1      38.095  54.464  59.195  0.00  0.00    +0.000 A 
BRANCH  13  17
ATOM     17  O   UNL     1      35.682  51.074  59.188  0.00  0.00    +0.000 OA
ATOM     18  C   UNL     1      34.287  51.260  59.122  0.00  0.00    +0.000 C 
ENDBRANCH  13  17
BRANCH  14  19
ATOM     19  O   UNL     1      38.026  51.072  60.686  0.00  0.00    +0.000 OA
ATOM     20  C   UNL     1      38.795  50.042  60.057  0.00  0.00    +0.000 C 
ENDBRANCH  14  19
BRANCH  15  21
ATOM     21  O   UNL     1      39.620  53.315  60.687  0.00  0.00    +0.000 OA
ATOM     22  C   UNL     1      40.875  53.357  60.078  0.00  0.00    +0.000 C 
ENDBRANCH  15  21
ENDBRANCH   2  11
BRANCH   1  23
ATOM     23  C   UNL     1      35.327  56.572  59.438  0.00  0.00    +0.000 C 
ATOM     24  N   UNL     1      35.023  56.598  60.553  0.00  0.00    +0.000 NA
ENDBRANCH   1  23
TORSDOF 7
ENDMDL
MODEL 2
REMARK VINA RESULT:      -5.8     11.249     12.587
REMARK  Name = 
REMARK  7 active torsions:
REMARK  status: ('A' for Active; 'I' for Inactive)
REMARK    1  A    between atoms: O_2  and  C_3
REMARK    2  A    between atoms: C_6  and  C_7
REMARK    3  A    between atoms: C_7  and  C_8
REMARK    4  A    between atoms: C_10  and  C_11
REMARK    5  A    between atoms: C_13  and  O_14
REMARK    6  A    between atoms: C_16  and  O_17
REMARK    7  A    between atoms: C_19  and  O_20
REMARK                            x       y       z     vdW  Elec       q    Type
REMARK                         _______ _______ _______ _____ _____    ______ ____
ROOT
ATOM      1  C   UNL     1      30.439  46.237  62.266  0.00  0.00    +0.000 C 
ATOM      2  C   UNL     1      30.658  44.971  62.112  0.00  0.00    +0.000 C 
ENDROOT
BRANCH   1   6
ATOM      3  C   UNL     1      26.596  47.524  63.551  0.00  0.00    +0.000 A 
ATOM      4  C   UNL     1      27.245  46.474  64.214  0.00  0.00    +0.000 A 
ATOM      5  C   UNL     1      28.480  46.118  63.724  0.00  0.00    +0.000 A 
ATOM      6  C   UNL     1      29.091  46.708  62.667  0.00  0.00    +0.000 A 
ATOM      7  C   UNL     1      28.459  47.727  62.025  0.00  0.00    +0.000 A 
ATOM      8  C   UNL     1      27.193  48.139  62.476  0.00  0.00    +0.000 A 
BRANCH   3  10
ATOM      9  C   UNL     1      25.306  48.731  65.172  0.00  0.00    +0.000 C 
ATOM     10  O   UNL     1      25.355  47.866  64.061  0.00  0.00    +0.000 OA
ENDBRANCH   3  10
ENDBRANCH   1   6
BRANCH   2  11
ATOM     11  C   UNL     1      31.927  44.394  61.725  0.00  0.00    +0.000 A 
ATOM     12  C   UNL     1      32.043  43.992  60.390  0.00  0.00    +0.000 A 
ATOM     13  C   UNL     1      33.192  43.437  59.867  0.00  0.00    +0.000 A 
ATOM     14  C   UNL     1      34.296  43.264  60.696  0.00  0.00    +0.000 A 
ATOM     15  C   UNL     1      34.205  43.652  62.013  0.00  0.00    +0.000 A 
ATOM     16  C   UNL     1      33.023  44.214  62.522  0.00  0.00    +0.000 A 
BRANCH  13  17
ATOM     17  O   UNL     1      33.245  43.058  58.530  0.00  0.00    +0.000 OA
ATOM     18  C   UNL     1      32.116  43.290  57.719  0.00  0.00    +0.000 C 
ENDBRANCH  13  17
BRANCH  14  19
ATOM     19  O   UNL     1      35.461  42.704  60.174  0.00  0.00    +0.000 OA
ATOM     20  C   UNL     1      36.489  43.567  59.679  0.00  0.00    +0.000 C 
ENDBRANCH  14  19
BRANCH  15  21
ATOM     21  O   UNL     1      35.312  43.470  62.812  0.00  0.00    +0.000 OA
ATOM     22  C   UNL     1      35.974  44.555  63.390  0.00  0.00    +0.000 C 
ENDBRANCH  15  21
ENDBRANCH   2  11
BRANCH   1  23
ATOM     23  C   UNL     1      31.509  47.167  62.045  0.00  0.00    +0.000 C 
ATOM     24  N   UNL     1      32.374  47.914  61.874  0.00  0.00    +0.000 NA
ENDBRANCH   1  23
TORSDOF 7
ENDMDL
MODEL 3
REMARK VINA RESULT:      -5.8     11.333     12.802
REMARK  Name = 
REMARK  7 active torsions:
REMARK  status: ('A' for Active; 'I' for Inactive)
REMARK    1  A    between atoms: O_2  and  C_3
REMARK    2  A    between atoms: C_6  and  C_7
REMARK    3  A    between atoms: C_7  and  C_8
REMARK    4  A    between atoms: C_10  and  C_11
REMARK    5  A    between atoms: C_13  and  O_14
REMARK    6  A    between atoms: C_16  and  O_17
REMARK    7  A    between atoms: C_19  and  O_20
REMARK                            x       y       z     vdW  Elec       q    Type
REMARK                         _______ _______ _______ _____ _____    ______ ____
ROOT
ATOM      1  C   UNL     1      30.443  46.186  62.274  0.00  0.00    +0.000 C 
ATOM      2  C   UNL     1      30.634  44.918  62.100  0.00  0.00    +0.000 C 
ENDROOT
BRANCH   1   6
ATOM      3  C   UNL     1      26.616  47.546  63.530  0.00  0.00    +0.000 A 
ATOM      4  C   UNL     1      27.236  46.478  64.192  0.00  0.00    +0.000 A 
ATOM      5  C   UNL     1      28.468  46.099  63.712  0.00  0.00    +0.000 A 
ATOM      6  C   UNL     1      29.101  46.684  62.665  0.00  0.00    +0.000 A 
ATOM      7  C   UNL     1      28.497  47.719  62.023  0.00  0.00    +0.000 A 
ATOM      8  C   UNL     1      27.235  48.155  62.464  0.00  0.00    +0.000 A 
BRANCH   3  10
ATOM      9  C   UNL     1      25.336  48.728  65.178  0.00  0.00    +0.000 C 
ATOM     10  O   UNL     1      25.377  47.911  64.031  0.00  0.00    +0.000 OA
ENDBRANCH   3  10
ENDBRANCH   1   6
BRANCH   2  11
ATOM     11  C   UNL     1      31.893  44.317  61.720  0.00  0.00    +0.000 A 
ATOM     12  C   UNL     1      32.720  43.895  62.768  0.00  0.00    +0.000 A 
ATOM     13  C   UNL     1      33.944  43.293  62.566  0.00  0.00    +0.000 A 
ATOM     14  C   UNL     1      34.389  43.089  61.265  0.00  0.00    +0.000 A 
ATOM     15  C   UNL     1      33.593  43.495  60.218  0.00  0.00    +0.000 A 
ATOM     16  C   UNL     1      32.351  44.106  60.449  0.00  0.00    +0.000 A 
BRANCH  13  17
ATOM     17  O   UNL     1      34.719  42.896  63.650  0.00  0.00    +0.000 OA
ATOM     18  C   UNL     1      35.171  43.881  64.551  0.00  0.00    +0.000 C 
ENDBRANCH  13  17
BRANCH  14  19
ATOM     19  O   UNL     1      35.626  42.480  61.053  0.00  0.00    +0.000 OA
ATOM     20  C   UNL     1      36.801  43.294  60.982  0.00  0.00    +0.000 C 
ENDBRANCH  14  19
BRANCH  15  21
ATOM     21  O   UNL     1      34.057  43.280  58.939  0.00  0.00    +0.000 OA
ATOM     22  C   UNL     1      33.249  43.519  57.826  0.00  0.00    +0.000 C 
ENDBRANCH  15  21
ENDBRANCH   2  11
BRANCH   1  23
ATOM     23  C   UNL     1      31.538  47.094  62.083  0.00  0.00    +0.000 C 
ATOM     24  N   UNL     1      32.416  47.830  61.934  0.00  0.00    +0.000 NA
ENDBRANCH   1  23
TORSDOF 7
ENDMDL
MODEL 4
REMARK VINA RESULT:      -5.8      1.912      2.380
REMARK  Name = 
REMARK  7 active torsions:
REMARK  status: ('A' for Active; 'I' for Inactive)
REMARK    1  A    between atoms: O_2  and  C_3
REMARK    2  A    between atoms: C_6  and  C_7
REMARK    3  A    between atoms: C_7  and  C_8
REMARK    4  A    between atoms: C_10  and  C_11
REMARK    5  A    between atoms: C_13  and  O_14
REMARK    6  A    between atoms: C_16  and  O_17
REMARK    7  A    between atoms: C_19  and  O_20
REMARK                            x       y       z     vdW  Elec       q    Type
REMARK                         _______ _______ _______ _____ _____    ______ ____
ROOT
ATOM      1  C   UNL     1      35.343  57.338  57.073  0.00  0.00    +0.000 C 
ATOM      2  C   UNL     1      35.289  56.649  58.168  0.00  0.00    +0.000 C 
ENDROOT
BRANCH   1   6
ATOM      3  C   UNL     1      32.673  60.565  56.347  0.00  0.00    +0.000 A 
ATOM      4  C   UNL     1      33.408  60.008  55.292  0.00  0.00    +0.000 A 
ATOM      5  C   UNL     1      34.255  58.975  55.621  0.00  0.00    +0.000 A 
ATOM      6  C   UNL     1      34.413  58.476  56.871  0.00  0.00    +0.000 A 
ATOM      7  C   UNL     1      33.699  59.017  57.894  0.00  0.00    +0.000 A 
ATOM      8  C   UNL     1      32.816  60.078  57.625  0.00  0.00    +0.000 A 
BRANCH   3  10
ATOM      9  C   UNL     1      30.618  61.750  56.702  0.00  0.00    +0.000 C 
ATOM     10  O   UNL     1      31.827  61.603  55.993  0.00  0.00    +0.000 OA
ENDBRANCH   3  10
ENDBRANCH   1   6
BRANCH   2  11
ATOM     11  C   UNL     1      36.141  55.522  58.477  0.00  0.00    +0.000 A 
ATOM     12  C   UNL     1      35.631  54.256  58.168  0.00  0.00    +0.000 A 
ATOM     13  C   UNL     1      36.328  53.088  58.391  0.00  0.00    +0.000 A 
ATOM     14  C   UNL     1      37.600  53.156  58.949  0.00  0.00    +0.000 A 
ATOM     15  C   UNL     1      38.123  54.391  59.261  0.00  0.00    +0.000 A 
ATOM     16  C   UNL     1      37.393  55.566  59.025  0.00  0.00    +0.000 A 
BRANCH  13  17
ATOM     17  O   UNL     1      35.765  51.859  58.062  0.00  0.00    +0.000 OA
ATOM     18  C   UNL     1      34.752  51.339  58.892  0.00  0.00    +0.000 C 
ENDBRANCH  13  17
BRANCH  14  19
ATOM     19  O   UNL     1      38.311  51.979  59.178  0.00  0.00    +0.000 OA
ATOM     20  C   UNL     1      38.177  51.317  60.439  0.00  0.00    +0.000 C 
ENDBRANCH  14  19
BRANCH  15  21
ATOM     21  O   UNL     1      39.385  54.431  59.812  0.00  0.00    +0.000 OA
ATOM     22  C   UNL     1      39.584  54.814  61.139  0.00  0.00    +0.000 C 
ENDBRANCH  15  21
ENDBRANCH   2  11
BRANCH   1  23
ATOM     23  C   UNL     1      36.306  56.986  56.069  0.00  0.00    +0.000 C 
ATOM     24  N   UNL     1      37.076  56.705  55.255  0.00  0.00    +0.000 NA
ENDBRANCH   1  23
TORSDOF 7
ENDMDL
MODEL 5
REMARK VINA RESULT:      -5.8      0.398      2.618
REMARK  Name = 
REMARK  7 active torsions:
REMARK  status: ('A' for Active; 'I' for Inactive)
REMARK    1  A    between atoms: O_2  and  C_3
REMARK    2  A    between atoms: C_6  and  C_7
REMARK    3  A    between atoms: C_7  and  C_8
REMARK    4  A    between atoms: C_10  and  C_11
REMARK    5  A    between atoms: C_13  and  O_14
REMARK    6  A    between atoms: C_16  and  O_17
REMARK    7  A    between atoms: C_19  and  O_20
REMARK                            x       y       z     vdW  Elec       q    Type
REMARK                         _______ _______ _______ _____ _____    ______ ____
ROOT
ATOM      1  C   UNL     1      35.735  56.438  58.145  0.00  0.00    +0.000 C 
ATOM      2  C   UNL     1      36.351  55.401  57.675  0.00  0.00    +0.000 C 
ENDROOT
BRANCH   1   6
ATOM      3  C   UNL     1      34.553  59.456  55.394  0.00  0.00    +0.000 A 
ATOM      4  C   UNL     1      35.628  58.608  55.091  0.00  0.00    +0.000 A 
ATOM      5  C   UNL     1      35.946  57.668  56.044  0.00  0.00    +0.000 A 
ATOM      6  C   UNL     1      35.298  57.516  57.224  0.00  0.00    +0.000 A 
ATOM      7  C   UNL     1      34.256  58.339  57.516  0.00  0.00    +0.000 A 
ATOM      8  C   UNL     1      33.880  59.323  56.585  0.00  0.00    +0.000 A 
BRANCH   3  10
ATOM      9  C   UNL     1      35.310  60.953  53.679  0.00  0.00    +0.000 C 
ATOM     10  O   UNL     1      34.250  60.394  54.421  0.00  0.00    +0.000 OA
ENDBRANCH   3  10
ENDBRANCH   1   6
BRANCH   2  11
ATOM     11  C   UNL     1      36.823  54.290  58.472  0.00  0.00    +0.000 A 
ATOM     12  C   UNL     1      38.117  54.406  58.993  0.00  0.00    +0.000 A 
ATOM     13  C   UNL     1      38.701  53.438  59.781  0.00  0.00    +0.000 A 
ATOM     14  C   UNL     1      37.982  52.286  60.081  0.00  0.00    +0.000 A 
ATOM     15  C   UNL     1      36.707  52.149  59.580  0.00  0.00    +0.000 A 
ATOM     16  C   UNL     1      36.134  53.149  58.779  0.00  0.00    +0.000 A 
BRANCH  13  17
ATOM     17  O   UNL     1      39.992  53.613  60.269  0.00  0.00    +0.000 OA
ATOM     18  C   UNL     1      41.077  53.368  59.404  0.00  0.00    +0.000 C 
ENDBRANCH  13  17
BRANCH  14  19
ATOM     19  O   UNL     1      38.567  51.302  60.877  0.00  0.00    +0.000 OA
ATOM     20  C   UNL     1      39.263  50.220  60.251  0.00  0.00    +0.000 C 
ENDBRANCH  14  19
BRANCH  15  21
ATOM     21  O   UNL     1      36.016  51.000  59.892  0.00  0.00    +0.000 OA
ATOM     22  C   UNL     1      34.659  50.867  59.592  0.00  0.00    +0.000 C 
ENDBRANCH  15  21
ENDBRANCH   2  11
BRANCH   1  23
ATOM     23  C   UNL     1      35.484  56.527  59.555  0.00  0.00    +0.000 C 
ATOM     24  N   UNL     1      35.286  56.591  60.692  0.00  0.00    +0.000 NA
ENDBRANCH   1  23
TORSDOF 7
ENDMDL
MODEL 6
REMARK VINA RESULT:      -5.5      3.436      8.304
REMARK  Name = 
REMARK  7 active torsions:
REMARK  status: ('A' for Active; 'I' for Inactive)
REMARK    1  A    between atoms: O_2  and  C_3
REMARK    2  A    between atoms: C_6  and  C_7
REMARK    3  A    between atoms: C_7  and  C_8
REMARK    4  A    between atoms: C_10  and  C_11
REMARK    5  A    between atoms: C_13  and  O_14
REMARK    6  A    between atoms: C_16  and  O_17
REMARK    7  A    between atoms: C_19  and  O_20
REMARK                            x       y       z     vdW  Elec       q    Type
REMARK                         _______ _______ _______ _____ _____    ______ ____
ROOT
ATOM      1  C   UNL     1      40.216  52.077  59.901  0.00  0.00    +0.000 C 
ATOM      2  C   UNL     1      39.454  52.017  58.856  0.00  0.00    +0.000 C 
ENDROOT
BRANCH   1   6
ATOM      3  C   UNL     1      44.184  50.571  59.654  0.00  0.00    +0.000 A 
ATOM      4  C   UNL     1      43.703  51.451  58.675  0.00  0.00    +0.000 A 
ATOM      5  C   UNL     1      42.405  51.880  58.830  0.00  0.00    +0.000 A 
ATOM      6  C   UNL     1      41.587  51.512  59.847  0.00  0.00    +0.000 A 
ATOM      7  C   UNL     1      42.056  50.657  60.795  0.00  0.00    +0.000 A 
ATOM      8  C   UNL     1      43.375  50.181  60.695  0.00  0.00    +0.000 A 
BRANCH   3  10
ATOM      9  C   UNL     1      45.740  49.086  58.594  0.00  0.00    +0.000 C 
ATOM     10  O   UNL     1      45.493  50.154  59.479  0.00  0.00    +0.000 OA
ENDBRANCH   3  10
ENDBRANCH   1   6
BRANCH   2  11
ATOM     11  C   UNL     1      38.104  52.532  58.789  0.00  0.00    +0.000 A 
ATOM     12  C   UNL     1      37.078  51.617  59.056  0.00  0.00    +0.000 A 
ATOM     13  C   UNL     1      35.742  51.959  59.044  0.00  0.00    +0.000 A 
ATOM     14  C   UNL     1      35.384  53.271  58.754  0.00  0.00    +0.000 A 
ATOM     15  C   UNL     1      36.375  54.188  58.488  0.00  0.00    +0.000 A 
ATOM     16  C   UNL     1      37.728  53.816  58.506  0.00  0.00    +0.000 A 
BRANCH  13  17
ATOM     17  O   UNL     1      34.770  51.004  59.318  0.00  0.00    +0.000 OA
ATOM     18  C   UNL     1      34.905  50.219  60.481  0.00  0.00    +0.000 C 
ENDBRANCH  13  17
BRANCH  14  19
ATOM     19  O   UNL     1      34.035  53.623  58.739  0.00  0.00    +0.000 OA
ATOM     20  C   UNL     1      33.442  54.162  59.925  0.00  0.00    +0.000 C 
ENDBRANCH  14  19
BRANCH  15  21
ATOM     21  O   UNL     1      35.993  55.481  58.204  0.00  0.00    +0.000 OA
ATOM     22  C   UNL     1      36.320  56.535  59.058  0.00  0.00    +0.000 C 
ENDBRANCH  15  21
ENDBRANCH   2  11
BRANCH   1  23
ATOM     23  C   UNL     1      39.719  52.690  61.099  0.00  0.00    +0.000 C 
ATOM     24  N   UNL     1      39.313  53.188  62.059  0.00  0.00    +0.000 NA
ENDBRANCH   1  23
TORSDOF 7
ENDMDL
MODEL 7
REMARK VINA RESULT:      -5.4      3.399      8.534
REMARK  Name = 
REMARK  7 active torsions:
REMARK  status: ('A' for Active; 'I' for Inactive)
REMARK    1  A    between atoms: O_2  and  C_3
REMARK    2  A    between atoms: C_6  and  C_7
REMARK    3  A    between atoms: C_7  and  C_8
REMARK    4  A    between atoms: C_10  and  C_11
REMARK    5  A    between atoms: C_13  and  O_14
REMARK    6  A    between atoms: C_16  and  O_17
REMARK    7  A    between atoms: C_19  and  O_20
REMARK                            x       y       z     vdW  Elec       q    Type
REMARK                         _______ _______ _______ _____ _____    ______ ____
ROOT
ATOM      1  C   UNL     1      40.460  52.352  59.978  0.00  0.00    +0.000 C 
ATOM      2  C   UNL     1      39.361  51.757  59.640  0.00  0.00    +0.000 C 
ENDROOT
BRANCH   1   6
ATOM      3  C   UNL     1      44.165  50.331  59.463  0.00  0.00    +0.000 A 
ATOM      4  C   UNL     1      43.513  50.303  60.704  0.00  0.00    +0.000 A 
ATOM      5  C   UNL     1      42.325  50.992  60.782  0.00  0.00    +0.000 A 
ATOM      6  C   UNL     1      41.762  51.677  59.756  0.00  0.00    +0.000 A 
ATOM      7  C   UNL     1      42.395  51.703  58.554  0.00  0.00    +0.000 A 
ATOM      8  C   UNL     1      43.615  51.019  58.407  0.00  0.00    +0.000 A 
BRANCH   3  10
ATOM      9  C   UNL     1      46.370  49.962  60.329  0.00  0.00    +0.000 C 
ATOM     10  O   UNL     1      45.357  49.630  59.408  0.00  0.00    +0.000 OA
ENDBRANCH   3  10
ENDBRANCH   1   6
BRANCH   2  11
ATOM     11  C   UNL     1      38.036  52.313  59.806  0.00  0.00    +0.000 A 
ATOM     12  C   UNL     1      37.584  53.154  58.783  0.00  0.00    +0.000 A 
ATOM     13  C   UNL     1      36.340  53.749  58.791  0.00  0.00    +0.000 A 
ATOM     14  C   UNL     1      35.484  53.510  59.861  0.00  0.00    +0.000 A 
ATOM     15  C   UNL     1      35.907  52.686  60.879  0.00  0.00    +0.000 A 
ATOM     16  C   UNL     1      37.179  52.093  60.848  0.00  0.00    +0.000 A 
BRANCH  13  17
ATOM     17  O   UNL     1      35.948  54.575  57.743  0.00  0.00    +0.000 OA
ATOM     18  C   UNL     1      36.434  55.897  57.711  0.00  0.00    +0.000 C 
ENDBRANCH  13  17
BRANCH  14  19
ATOM     19  O   UNL     1      34.225  54.108  59.876  0.00  0.00    +0.000 OA
ATOM     20  C   UNL     1      33.144  53.477  59.182  0.00  0.00    +0.000 C 
ENDBRANCH  14  19
BRANCH  15  21
ATOM     21  O   UNL     1      35.041  52.465  61.927  0.00  0.00    +0.000 OA
ATOM     22  C   UNL     1      35.414  51.687  63.024  0.00  0.00    +0.000 C 
ENDBRANCH  15  21
ENDBRANCH   2  11
BRANCH   1  23
ATOM     23  C   UNL     1      40.398  53.659  60.566  0.00  0.00    +0.000 C 
ATOM     24  N   UNL     1      40.342  54.710  61.043  0.00  0.00    +0.000 NA
ENDBRANCH   1  23
TORSDOF 7
ENDMDL
MODEL 8
REMARK VINA RESULT:      -5.4      1.898      8.047
REMARK  Name = 
REMARK  7 active torsions:
REMARK  status: ('A' for Active; 'I' for Inactive)
REMARK    1  A    between atoms: O_2  and  C_3
REMARK    2  A    between atoms: C_6  and  C_7
REMARK    3  A    between atoms: C_7  and  C_8
REMARK    4  A    between atoms: C_10  and  C_11
REMARK    5  A    between atoms: C_13  and  O_14
REMARK    6  A    between atoms: C_16  and  O_17
REMARK    7  A    between atoms: C_19  and  O_20
REMARK                            x       y       z     vdW  Elec       q    Type
REMARK                         _______ _______ _______ _____ _____    ______ ____
ROOT
ATOM      1  C   UNL     1      36.356  54.027  58.587  0.00  0.00    +0.000 C 
ATOM      2  C   UNL     1      36.889  55.074  58.043  0.00  0.00    +0.000 C 
ENDROOT
BRANCH   1   6
ATOM      3  C   UNL     1      38.914  50.786  59.601  0.00  0.00    +0.000 A 
ATOM      4  C   UNL     1      39.456  51.997  59.149  0.00  0.00    +0.000 A 
ATOM      5  C   UNL     1      38.554  52.986  58.834  0.00  0.00    +0.000 A 
ATOM      6  C   UNL     1      37.208  52.863  58.935  0.00  0.00    +0.000 A 
ATOM      7  C   UNL     1      36.684  51.688  59.374  0.00  0.00    +0.000 A 
ATOM      8  C   UNL     1      37.552  50.635  59.711  0.00  0.00    +0.000 A 
BRANCH   3  10
ATOM      9  C   UNL     1      41.141  50.206  60.277  0.00  0.00    +0.000 C 
ATOM     10  O   UNL     1      39.840  49.805  59.913  0.00  0.00    +0.000 OA
ENDBRANCH   3  10
ENDBRANCH   1   6
BRANCH   2  11
ATOM     11  C   UNL     1      36.163  56.265  57.661  0.00  0.00    +0.000 A 
ATOM     12  C   UNL     1      36.272  56.654  56.320  0.00  0.00    +0.000 A 
ATOM     13  C   UNL     1      35.629  57.758  55.801  0.00  0.00    +0.000 A 
ATOM     14  C   UNL     1      34.832  58.530  56.639  0.00  0.00    +0.000 A 
ATOM     15  C   UNL     1      34.709  58.168  57.960  0.00  0.00    +0.000 A 
ATOM     16  C   UNL     1      35.374  57.039  58.466  0.00  0.00    +0.000 A 
BRANCH  13  17
ATOM     17  O   UNL     1      35.778  58.092  54.460  0.00  0.00    +0.000 OA
ATOM     18  C   UNL     1      37.069  58.391  53.979  0.00  0.00    +0.000 C 
ENDBRANCH  13  17
BRANCH  14  19
ATOM     19  O   UNL     1      34.179  59.648  56.121  0.00  0.00    +0.000 OA
ATOM     20  C   UNL     1      34.860  60.907  56.103  0.00  0.00    +0.000 C 
ENDBRANCH  14  19
BRANCH  15  21
ATOM     21  O   UNL     1      33.913  58.949  58.769  0.00  0.00    +0.000 OA
ATOM     22  C   UNL     1      34.094  58.979  60.152  0.00  0.00    +0.000 C 
ENDBRANCH  15  21
ENDBRANCH   2  11
BRANCH   1  23
ATOM     23  C   UNL     1      34.945  54.010  58.843  0.00  0.00    +0.000 C 
ATOM     24  N   UNL     1      33.808  54.004  59.054  0.00  0.00    +0.000 NA
ENDBRANCH   1  23
TORSDOF 7
ENDMDL
MODEL 9
REMARK VINA RESULT:      -5.4     14.884     16.629
REMARK  Name = 
REMARK  7 active torsions:
REMARK  status: ('A' for Active; 'I' for Inactive)
REMARK    1  A    between atoms: O_2  and  C_3
REMARK    2  A    between atoms: C_6  and  C_7
REMARK    3  A    between atoms: C_7  and  C_8
REMARK    4  A    between atoms: C_10  and  C_11
REMARK    5  A    between atoms: C_13  and  O_14
REMARK    6  A    between atoms: C_16  and  O_17
REMARK    7  A    between atoms: C_19  and  O_20
REMARK                            x       y       z     vdW  Elec       q    Type
REMARK                         _______ _______ _______ _____ _____    ______ ____
ROOT
ATOM      1  C   UNL     1      44.543  46.799  47.079  0.00  0.00    +0.000 C 
ATOM      2  C   UNL     1      44.855  45.655  47.598  0.00  0.00    +0.000 C 
ENDROOT
BRANCH   1   6
ATOM      3  C   UNL     1      46.811  48.509  43.915  0.00  0.00    +0.000 A 
ATOM      4  C   UNL     1      45.410  48.552  43.881  0.00  0.00    +0.000 A 
ATOM      5  C   UNL     1      44.759  47.965  44.941  0.00  0.00    +0.000 A 
ATOM      6  C   UNL     1      45.375  47.366  45.990  0.00  0.00    +0.000 A 
ATOM      7  C   UNL     1      46.734  47.325  46.021  0.00  0.00    +0.000 A 
ATOM      8  C   UNL     1      47.460  47.906  44.966  0.00  0.00    +0.000 A 
BRANCH   3  10
ATOM      9  C   UNL     1      47.688  48.326  41.691  0.00  0.00    +0.000 C 
ATOM     10  O   UNL     1      47.445  49.106  42.838  0.00  0.00    +0.000 OA
ENDBRANCH   3  10
ENDBRANCH   1   6
BRANCH   2  11
ATOM     11  C   UNL     1      44.122  45.003  48.661  0.00  0.00    +0.000 A 
ATOM     12  C   UNL     1      44.514  45.318  49.967  0.00  0.00    +0.000 A 
ATOM     13  C   UNL     1      43.904  44.789  51.085  0.00  0.00    +0.000 A 
ATOM     14  C   UNL     1      42.848  43.899  50.920  0.00  0.00    +0.000 A 
ATOM     15  C   UNL     1      42.445  43.575  49.645  0.00  0.00    +0.000 A 
ATOM     16  C   UNL     1      43.082  44.127  48.522  0.00  0.00    +0.000 A 
BRANCH  13  17
ATOM     17  O   UNL     1      44.340  45.142  52.357  0.00  0.00    +0.000 OA
ATOM     18  C   UNL     1      44.976  46.387  52.530  0.00  0.00    +0.000 C 
ENDBRANCH  13  17
BRANCH  14  19
ATOM     19  O   UNL     1      42.226  43.360  52.046  0.00  0.00    +0.000 OA
ATOM     20  C   UNL     1      42.720  42.134  52.595  0.00  0.00    +0.000 C 
ENDBRANCH  14  19
BRANCH  15  21
ATOM     21  O   UNL     1      41.396  42.692  49.509  0.00  0.00    +0.000 OA
ATOM     22  C   UNL     1      41.503  41.559  48.700  0.00  0.00    +0.000 C 
ENDBRANCH  15  21
ENDBRANCH   2  11
BRANCH   1  23
ATOM     23  C   UNL     1      43.392  47.502  47.569  0.00  0.00    +0.000 C 
ATOM     24  N   UNL     1      42.470  48.072  47.970  0.00  0.00    +0.000 NA
ENDBRANCH   1  23
TORSDOF 7
ENDMDL
MODEL 10
REMARK VINA RESULT:      -5.3      2.069      3.235
REMARK  Name = 
REMARK  7 active torsions:
REMARK  status: ('A' for Active; 'I' for Inactive)
REMARK    1  A    between atoms: O_2  and  C_3
REMARK    2  A    between atoms: C_6  and  C_7
REMARK    3  A    between atoms: C_7  and  C_8
REMARK    4  A    between atoms: C_10  and  C_11
REMARK    5  A    between atoms: C_13  and  O_14
REMARK    6  A    between atoms: C_16  and  O_17
REMARK    7  A    between atoms: C_19  and  O_20
REMARK                            x       y       z     vdW  Elec       q    Type
REMARK                         _______ _______ _______ _____ _____    ______ ____
ROOT
ATOM      1  C   UNL     1      36.277  55.456  58.498  0.00  0.00    +0.000 C 
ATOM      2  C   UNL     1      37.092  55.647  59.485  0.00  0.00    +0.000 C 
ENDROOT
BRANCH   1   6
ATOM      3  C   UNL     1      35.001  58.692  56.054  0.00  0.00    +0.000 A 
ATOM      4  C   UNL     1      35.951  57.779  55.575  0.00  0.00    +0.000 A 
ATOM      5  C   UNL     1      36.312  56.770  56.438  0.00  0.00    +0.000 A 
ATOM      6  C   UNL     1      35.815  56.609  57.689  0.00  0.00    +0.000 A 
ATOM      7  C   UNL     1      34.893  57.496  58.151  0.00  0.00    +0.000 A 
ATOM      8  C   UNL     1      34.482  58.552  57.320  0.00  0.00    +0.000 A 
BRANCH   3  10
ATOM      9  C   UNL     1      33.322  59.746  54.704  0.00  0.00    +0.000 C 
ATOM     10  O   UNL     1      34.651  59.698  55.169  0.00  0.00    +0.000 OA
ENDBRANCH   3  10
ENDBRANCH   1   6
BRANCH   2  11
ATOM     11  C   UNL     1      37.610  54.604  60.343  0.00  0.00    +0.000 A 
ATOM     12  C   UNL     1      38.913  54.170  60.073  0.00  0.00    +0.000 A 
ATOM     13  C   UNL     1      39.549  53.193  60.809  0.00  0.00    +0.000 A 
ATOM     14  C   UNL     1      38.876  52.604  61.874  0.00  0.00    +0.000 A 
ATOM     15  C   UNL     1      37.594  53.015  62.159  0.00  0.00    +0.000 A 
ATOM     16  C   UNL     1      36.967  54.011  61.394  0.00  0.00    +0.000 A 
BRANCH  13  17
ATOM     17  O   UNL     1      40.846  52.804  60.490  0.00  0.00    +0.000 OA
ATOM     18  C   UNL     1      41.031  51.849  59.471  0.00  0.00    +0.000 C 
ENDBRANCH  13  17
BRANCH  14  19
ATOM     19  O   UNL     1      39.513  51.616  62.623  0.00  0.00    +0.000 OA
ATOM     20  C   UNL     1      40.304  51.998  63.753  0.00  0.00    +0.000 C 
ENDBRANCH  14  19
BRANCH  15  21
ATOM     21  O   UNL     1      36.949  52.417  63.219  0.00  0.00    +0.000 OA
ATOM     22  C   UNL     1      35.738  51.745  63.045  0.00  0.00    +0.000 C 
ENDBRANCH  15  21
ENDBRANCH   2  11
BRANCH   1  23
ATOM     23  C   UNL     1      35.832  54.123  58.203  0.00  0.00    +0.000 C 
ATOM     24  N   UNL     1      35.482  53.048  57.966  0.00  0.00    +0.000 NA
ENDBRANCH   1  23
TORSDOF 7
ENDMDL
