REMARK  Name = 
REMARK  5 active torsions:
REMARK  status: ('A' for Active; 'I' for Inactive)
REMARK    1  A    between atoms: O_2  and  C_3
REMARK    2  A    between atoms: C_5  and  C_6
REMARK    3  A    between atoms: C_7  and  C_9
REMARK    4  A    between atoms: C_19  and  O_20
REMARK    5  A    between atoms: C_22  and  O_23
REMARK                            x       y       z     vdW  Elec       q    Type
REMARK                         _______ _______ _______ _____ _____    ______ ____
ROOT
ATOM      1  C   UNL     1       3.357   1.605   0.151  0.00  0.00    +0.000 A 
ATOM      2  C   UNL     1       1.989   1.540   0.251  0.00  0.00    +0.000 A 
ATOM      3  C   UNL     1       1.265   0.368   0.199  0.00  0.00    +0.000 A 
ATOM      4  C   UNL     1       1.986  -0.802   0.037  0.00  0.00    +0.000 A 
ATOM      5  C   UNL     1       3.357  -0.801  -0.065  0.00  0.00    +0.000 A 
ATOM      6  C   UNL     1       4.043   0.410  -0.008  0.00  0.00    +0.000 A 
ENDROOT
BRANCH   3   7
ATOM      7  C   UNL     1      -0.195   0.342   0.336  0.00  0.00    +0.000 C 
ATOM      8  C   UNL     1      -0.924  -0.339  -0.530  0.00  0.00    +0.000 C 
ATOM      9  C   UNL     1      -0.183  -1.054  -1.624  0.00  0.00    +0.000 C 
BRANCH   8  10
ATOM     10  C   UNL     1      -2.373  -0.455  -0.482  0.00  0.00    +0.000 A 
ATOM     11  C   UNL     1      -3.085  -1.104  -1.487  0.00  0.00    +0.000 A 
ATOM     12  C   UNL     1      -4.444  -1.231  -1.448  0.00  0.00    +0.000 A 
ATOM     13  C   UNL     1      -5.210  -0.717  -0.392  0.00  0.00    +0.000 A 
ATOM     14  C   UNL     1      -4.519  -0.074   0.606  0.00  0.00    +0.000 A 
ATOM     15  C   UNL     1      -3.116   0.055   0.559  0.00  0.00    +0.000 A 
ATOM     16  O   UNL     1      -5.469   0.346   1.528  0.00  0.00    +0.000 OA
ATOM     17  C   UNL     1      -6.777   0.146   0.963  0.00  0.00    +0.000 C 
ATOM     18  O   UNL     1      -6.568  -0.720  -0.137  0.00  0.00    +0.000 OA
ENDBRANCH   8  10
ENDBRANCH   3   7
BRANCH   1  20
ATOM     19  C   UNL     1       3.380   4.011   0.355  0.00  0.00    +0.000 C 
ATOM     20  O   UNL     1       4.087   2.788   0.197  0.00  0.00    +0.000 OA
ENDBRANCH   1  20
BRANCH   5  21
ATOM     21  O   UNL     1       4.120  -1.943  -0.221  0.00  0.00    +0.000 OA
ATOM     22  C   UNL     1       3.589  -3.249  -0.290  0.00  0.00    +0.000 C 
ENDBRANCH   5  21
BRANCH   6  23
ATOM     23  O   UNL     1       5.436   0.473  -0.110  0.00  0.00    +0.000 OA
ATOM     24  C   UNL     1       6.252   0.404   1.066  0.00  0.00    +0.000 C 
ENDBRANCH   6  23
TORSDOF 5
