REMARK  Name = 
REMARK  3 active torsions:
REMARK  status: ('A' for Active; 'I' for Inactive)
REMARK    1  A    between atoms: O_2  and  C_3
REMARK    2  A    between atoms: C_6  and  C_7
REMARK    3  A    between atoms: C_8  and  C_9
REMARK                            x       y       z     vdW  Elec       q    Type
REMARK                         _______ _______ _______ _____ _____    ______ ____
ROOT
ATOM      1  C   UNL     1      -0.216   0.009   0.001  0.00  0.00    +0.000 C 
ATOM      2  C   UNL     1       0.297  -0.332   1.139  0.00  0.00    +0.000 C 
ENDROOT
BRANCH   2   3
ATOM      3  C   UNL     1      -0.561  -0.711   2.247  0.00  0.00    +0.000 A 
ATOM      4  C   UNL     1      -1.924  -0.697   2.055  0.00  0.00    +0.000 A 
ATOM      5  C   UNL     1      -2.835  -1.032   3.017  0.00  0.00    +0.000 A 
ATOM      6  O   UNL     1      -4.197  -0.997   2.756  0.00  0.00    +0.000 OA
ATOM      7  C   UNL     1      -2.367  -1.413   4.276  0.00  0.00    +0.000 A 
ATOM      8  C   UNL     1      -1.005  -1.435   4.495  0.00  0.00    +0.000 A 
ATOM      9  O   UNL     1      -0.531  -1.818   5.761  0.00  0.00    +0.000 OA
ATOM     10  C   UNL     1      -0.103  -1.086   3.487  0.00  0.00    +0.000 A 
ENDBRANCH   2   3
BRANCH   1  14
ATOM     11  C   UNL     1       1.865   1.198  -3.542  0.00  0.00    +0.000 A 
ATOM     12  C   UNL     1       2.556   0.861  -2.396  0.00  0.00    +0.000 A 
ATOM     13  C   UNL     1       1.911   0.469  -1.227  0.00  0.00    +0.000 A 
ATOM     14  C   UNL     1       0.535   0.408  -1.181  0.00  0.00    +0.000 A 
ATOM     15  C   UNL     1      -0.151   0.746  -2.329  0.00  0.00    +0.000 A 
ATOM     16  C   UNL     1       0.491   1.134  -3.489  0.00  0.00    +0.000 A 
ATOM     17  O   UNL     1      -0.235   1.474  -4.647  0.00  0.00    +0.000 OA
BRANCH  11  19
ATOM     18  C   UNL     1       3.939   1.632  -4.693  0.00  0.00    +0.000 C 
ATOM     19  O   UNL     1       2.533   1.590  -4.711  0.00  0.00    +0.000 OA
ENDBRANCH  11  19
ENDBRANCH   1  14
TORSDOF 3
