REMARK  Name = 
REMARK  5 active torsions:
REMARK  status: ('A' for Active; 'I' for Inactive)
REMARK    1  A    between atoms: O_2  and  C_3
REMARK    2  A    between atoms: C_5  and  C_6
REMARK    3  A    between atoms: C_7  and  C_8
REMARK    4  A    between atoms: C_10  and  O_11
REMARK    5  A    between atoms: C_15  and  O_16
REMARK                            x       y       z     vdW  Elec       q    Type
REMARK                         _______ _______ _______ _____ _____    ______ ____
ROOT
ATOM      1  C   UNL     1      -1.367   0.508  -0.113  0.00  0.00    +0.000 A 
ATOM      2  C   UNL     1      -2.222   1.537   0.216  0.00  0.00    +0.000 A 
ATOM      3  C   UNL     1      -3.589   1.437   0.075  0.00  0.00    +0.000 A 
ATOM      4  C   UNL     1      -4.126   0.252  -0.417  0.00  0.00    +0.000 A 
ATOM      5  C   UNL     1      -3.247  -0.768  -0.740  0.00  0.00    +0.000 A 
ATOM      6  C   UNL     1      -1.889  -0.671  -0.601  0.00  0.00    +0.000 A 
ATOM      7  O   UNL     1      -4.017  -1.837  -1.206  0.00  0.00    +0.000 OA
ATOM      8  C   UNL     1      -5.381  -1.572  -0.962  0.00  0.00    +0.000 C 
ATOM      9  O   UNL     1      -5.429  -0.171  -0.676  0.00  0.00    +0.000 OA
ENDROOT
BRANCH   1  11
ATOM     10  C   UNL     1       0.988  -0.140  -0.183  0.00  0.00    +0.000 C 
ATOM     11  C   UNL     1       0.054   0.721   0.075  0.00  0.00    +0.000 C 
BRANCH  10  14
ATOM     12  C   UNL     1       4.725  -0.567  -0.065  0.00  0.00    +0.000 A 
ATOM     13  C   UNL     1       3.381  -0.812  -0.259  0.00  0.00    +0.000 A 
ATOM     14  C   UNL     1       2.425   0.137   0.031  0.00  0.00    +0.000 A 
ATOM     15  C   UNL     1       2.864   1.348   0.526  0.00  0.00    +0.000 A 
ATOM     16  C   UNL     1       4.207   1.603   0.724  0.00  0.00    +0.000 A 
ATOM     17  C   UNL     1       5.157   0.646   0.430  0.00  0.00    +0.000 A 
ATOM     18  O   UNL     1       6.523   0.877   0.621  0.00  0.00    +0.000 OA
BRANCH  12  20
ATOM     19  C   UNL     1       5.286  -2.769  -0.863  0.00  0.00    +0.000 C 
ATOM     20  O   UNL     1       5.703  -1.513  -0.352  0.00  0.00    +0.000 OA
ENDBRANCH  12  20
ENDBRANCH  10  14
ENDBRANCH   1  11
BRANCH   3  21
ATOM     21  O   UNL     1      -4.410   2.486   0.414  0.00  0.00    +0.000 OA
ATOM     22  C   UNL     1      -3.827   3.672   0.910  0.00  0.00    +0.000 C 
ENDBRANCH   3  21
BRANCH   6  23
ATOM     23  O   UNL     1      -1.047  -1.739  -0.946  0.00  0.00    +0.000 OA
ATOM     24  C   UNL     1      -0.763  -2.664   0.085  0.00  0.00    +0.000 C 
ENDBRANCH   6  23
TORSDOF 5
