MODEL 1
REMARK VINA RESULT:      -6.5      0.000      0.000
REMARK  Name = 
REMARK  3 active torsions:
REMARK  status: ('A' for Active; 'I' for Inactive)
REMARK    1  A    between atoms: O_2  and  C_3
REMARK    2  A    between atoms: C_6  and  C_7
REMARK    3  A    between atoms: C_8  and  C_9
REMARK                            x       y       z     vdW  Elec       q    Type
REMARK                         _______ _______ _______ _____ _____    ______ ____
ROOT
ATOM      1  C   UNL     1      30.893  45.967  62.093  0.00  0.00    +0.000 C 
ATOM      2  C   UNL     1      29.962  45.599  62.913  0.00  0.00    +0.000 C 
ENDROOT
BRANCH   2   3
ATOM      3  C   UNL     1      28.756  46.394  63.059  0.00  0.00    +0.000 A 
ATOM      4  C   UNL     1      28.491  47.361  62.115  0.00  0.00    +0.000 A 
ATOM      5  C   UNL     1      27.391  48.172  62.140  0.00  0.00    +0.000 A 
ATOM      6  O   UNL     1      27.184  49.127  61.156  0.00  0.00    +0.000 OA
ATOM      7  C   UNL     1      26.473  48.020  63.182  0.00  0.00    +0.000 A 
ATOM      8  C   UNL     1      26.716  47.059  64.141  0.00  0.00    +0.000 A 
ATOM      9  O   UNL     1      25.794  46.904  65.190  0.00  0.00    +0.000 OA
ATOM     10  C   UNL     1      27.852  46.247  64.083  0.00  0.00    +0.000 A 
ENDBRANCH   2   3
BRANCH   1  14
ATOM     11  C   UNL     1      34.501  43.809  61.304  0.00  0.00    +0.000 A 
ATOM     12  C   UNL     1      34.462  44.789  62.274  0.00  0.00    +0.000 A 
ATOM     13  C   UNL     1      33.305  45.509  62.557  0.00  0.00    +0.000 A 
ATOM     14  C   UNL     1      32.144  45.259  61.859  0.00  0.00    +0.000 A 
ATOM     15  C   UNL     1      32.188  44.278  60.890  0.00  0.00    +0.000 A 
ATOM     16  C   UNL     1      33.337  43.563  60.611  0.00  0.00    +0.000 A 
ATOM     17  O   UNL     1      33.354  42.567  59.615  0.00  0.00    +0.000 OA
BRANCH  11  19
ATOM     18  C   UNL     1      36.691  43.732  60.298  0.00  0.00    +0.000 C 
ATOM     19  O   UNL     1      35.676  43.093  61.033  0.00  0.00    +0.000 OA
ENDBRANCH  11  19
ENDBRANCH   1  14
TORSDOF 3
ENDMDL
MODEL 2
REMARK VINA RESULT:      -6.4     12.429     13.552
REMARK  Name = 
REMARK  3 active torsions:
REMARK  status: ('A' for Active; 'I' for Inactive)
REMARK    1  A    between atoms: O_2  and  C_3
REMARK    2  A    between atoms: C_6  and  C_7
REMARK    3  A    between atoms: C_8  and  C_9
REMARK                            x       y       z     vdW  Elec       q    Type
REMARK                         _______ _______ _______ _____ _____    ______ ____
ROOT
ATOM      1  C   UNL     1      36.112  56.098  57.406  0.00  0.00    +0.000 C 
ATOM      2  C   UNL     1      35.585  57.280  57.403  0.00  0.00    +0.000 C 
ENDROOT
BRANCH   2   3
ATOM      3  C   UNL     1      35.391  57.995  56.155  0.00  0.00    +0.000 A 
ATOM      4  C   UNL     1      34.239  58.729  55.992  0.00  0.00    +0.000 A 
ATOM      5  C   UNL     1      33.940  59.444  54.866  0.00  0.00    +0.000 A 
ATOM      6  O   UNL     1      32.759  60.165  54.768  0.00  0.00    +0.000 OA
ATOM      7  C   UNL     1      34.853  59.437  53.810  0.00  0.00    +0.000 A 
ATOM      8  C   UNL     1      36.016  58.709  53.947  0.00  0.00    +0.000 A 
ATOM      9  O   UNL     1      36.936  58.700  52.885  0.00  0.00    +0.000 OA
ATOM     10  C   UNL     1      36.288  57.989  55.113  0.00  0.00    +0.000 A 
ENDBRANCH   2   3
BRANCH   1  14
ATOM     11  C   UNL     1      36.690  53.686  60.891  0.00  0.00    +0.000 A 
ATOM     12  C   UNL     1      37.768  54.212  60.209  0.00  0.00    +0.000 A 
ATOM     13  C   UNL     1      37.616  55.001  59.073  0.00  0.00    +0.000 A 
ATOM     14  C   UNL     1      36.357  55.283  58.587  0.00  0.00    +0.000 A 
ATOM     15  C   UNL     1      35.283  54.755  59.272  0.00  0.00    +0.000 A 
ATOM     16  C   UNL     1      35.436  53.972  60.401  0.00  0.00    +0.000 A 
ATOM     17  O   UNL     1      34.321  53.446  61.081  0.00  0.00    +0.000 OA
BRANCH  11  19
ATOM     18  C   UNL     1      37.588  51.694  61.911  0.00  0.00    +0.000 C 
ATOM     19  O   UNL     1      36.863  52.894  62.035  0.00  0.00    +0.000 OA
ENDBRANCH  11  19
ENDBRANCH   1  14
TORSDOF 3
ENDMDL
MODEL 3
REMARK VINA RESULT:      -6.3     12.872     14.512
REMARK  Name = 
REMARK  3 active torsions:
REMARK  status: ('A' for Active; 'I' for Inactive)
REMARK    1  A    between atoms: O_2  and  C_3
REMARK    2  A    between atoms: C_6  and  C_7
REMARK    3  A    between atoms: C_8  and  C_9
REMARK                            x       y       z     vdW  Elec       q    Type
REMARK                         _______ _______ _______ _____ _____    ______ ____
ROOT
ATOM      1  C   UNL     1      36.295  56.307  57.107  0.00  0.00    +0.000 C 
ATOM      2  C   UNL     1      35.850  56.133  58.309  0.00  0.00    +0.000 C 
ENDROOT
BRANCH   2   3
ATOM      3  C   UNL     1      36.322  55.020  59.113  0.00  0.00    +0.000 A 
ATOM      4  C   UNL     1      35.448  54.438  60.003  0.00  0.00    +0.000 A 
ATOM      5  C   UNL     1      35.771  53.386  60.814  0.00  0.00    +0.000 A 
ATOM      6  O   UNL     1      34.841  52.846  61.690  0.00  0.00    +0.000 OA
ATOM      7  C   UNL     1      37.063  52.862  60.745  0.00  0.00    +0.000 A 
ATOM      8  C   UNL     1      37.959  53.427  59.861  0.00  0.00    +0.000 A 
ATOM      9  O   UNL     1      39.259  52.901  59.788  0.00  0.00    +0.000 OA
ATOM     10  C   UNL     1      37.593  54.502  59.047  0.00  0.00    +0.000 A 
ENDBRANCH   2   3
BRANCH   1  14
ATOM     11  C   UNL     1      35.239  59.414  54.363  0.00  0.00    +0.000 A 
ATOM     12  C   UNL     1      34.584  59.285  55.571  0.00  0.00    +0.000 A 
ATOM     13  C   UNL     1      34.903  58.287  56.487  0.00  0.00    +0.000 A 
ATOM     14  C   UNL     1      35.901  57.380  56.204  0.00  0.00    +0.000 A 
ATOM     15  C   UNL     1      36.553  57.513  54.996  0.00  0.00    +0.000 A 
ATOM     16  C   UNL     1      36.235  58.505  54.088  0.00  0.00    +0.000 A 
ATOM     17  O   UNL     1      36.917  58.618  52.861  0.00  0.00    +0.000 OA
BRANCH  11  19
ATOM     18  C   UNL     1      35.317  61.742  53.737  0.00  0.00    +0.000 C 
ATOM     19  O   UNL     1      34.904  60.427  53.453  0.00  0.00    +0.000 OA
ENDBRANCH  11  19
ENDBRANCH   1  14
TORSDOF 3
ENDMDL
MODEL 4
REMARK VINA RESULT:      -6.3     12.644     13.710
REMARK  Name = 
REMARK  3 active torsions:
REMARK  status: ('A' for Active; 'I' for Inactive)
REMARK    1  A    between atoms: O_2  and  C_3
REMARK    2  A    between atoms: C_6  and  C_7
REMARK    3  A    between atoms: C_8  and  C_9
REMARK                            x       y       z     vdW  Elec       q    Type
REMARK                         _______ _______ _______ _____ _____    ______ ____
ROOT
ATOM      1  C   UNL     1      35.616  56.796  57.989  0.00  0.00    +0.000 C 
ATOM      2  C   UNL     1      36.174  56.832  56.823  0.00  0.00    +0.000 C 
ENDROOT
BRANCH   2   3
ATOM      3  C   UNL     1      35.735  57.794  55.828  0.00  0.00    +0.000 A 
ATOM      4  C   UNL     1      36.563  58.056  54.760  0.00  0.00    +0.000 A 
ATOM      5  C   UNL     1      36.264  58.938  53.759  0.00  0.00    +0.000 A 
ATOM      6  O   UNL     1      37.144  59.154  52.709  0.00  0.00    +0.000 OA
ATOM      7  C   UNL     1      35.048  59.622  53.814  0.00  0.00    +0.000 A 
ATOM      8  C   UNL     1      34.200  59.378  54.874  0.00  0.00    +0.000 A 
ATOM      9  O   UNL     1      32.976  60.065  54.932  0.00  0.00    +0.000 OA
ATOM     10  C   UNL     1      34.539  58.468  55.879  0.00  0.00    +0.000 A 
ENDBRANCH   2   3
BRANCH   1  14
ATOM     11  C   UNL     1      36.506  54.060  61.155  0.00  0.00    +0.000 A 
ATOM     12  C   UNL     1      37.474  54.914  60.666  0.00  0.00    +0.000 A 
ATOM     13  C   UNL     1      37.218  55.816  59.638  0.00  0.00    +0.000 A 
ATOM     14  C   UNL     1      35.965  55.882  59.068  0.00  0.00    +0.000 A 
ATOM     15  C   UNL     1      35.001  55.026  59.560  0.00  0.00    +0.000 A 
ATOM     16  C   UNL     1      35.257  54.132  60.581  0.00  0.00    +0.000 A 
ATOM     17  O   UNL     1      34.253  53.270  61.065  0.00  0.00    +0.000 OA
BRANCH  11  19
ATOM     18  C   UNL     1      37.994  52.445  62.150  0.00  0.00    +0.000 C 
ATOM     19  O   UNL     1      36.782  53.158  62.192  0.00  0.00    +0.000 OA
ENDBRANCH  11  19
ENDBRANCH   1  14
TORSDOF 3
ENDMDL
MODEL 5
REMARK VINA RESULT:      -6.2      1.221      7.921
REMARK  Name = 
REMARK  3 active torsions:
REMARK  status: ('A' for Active; 'I' for Inactive)
REMARK    1  A    between atoms: O_2  and  C_3
REMARK    2  A    between atoms: C_6  and  C_7
REMARK    3  A    between atoms: C_8  and  C_9
REMARK                            x       y       z     vdW  Elec       q    Type
REMARK                         _______ _______ _______ _____ _____    ______ ____
ROOT
ATOM      1  C   UNL     1      30.731  45.399  62.653  0.00  0.00    +0.000 C 
ATOM      2  C   UNL     1      31.774  45.861  62.044  0.00  0.00    +0.000 C 
ENDROOT
BRANCH   2   3
ATOM      3  C   UNL     1      32.957  45.035  61.883  0.00  0.00    +0.000 A 
ATOM      4  C   UNL     1      34.054  45.299  62.672  0.00  0.00    +0.000 A 
ATOM      5  C   UNL     1      35.223  44.594  62.615  0.00  0.00    +0.000 A 
ATOM      6  O   UNL     1      36.292  44.913  63.441  0.00  0.00    +0.000 OA
ATOM      7  C   UNL     1      35.324  43.540  61.706  0.00  0.00    +0.000 A 
ATOM      8  C   UNL     1      34.239  43.254  60.903  0.00  0.00    +0.000 A 
ATOM      9  O   UNL     1      34.338  42.193  59.987  0.00  0.00    +0.000 OA
ATOM     10  C   UNL     1      33.059  43.997  60.989  0.00  0.00    +0.000 A 
ENDBRANCH   2   3
BRANCH   1  14
ATOM     11  C   UNL     1      27.120  47.625  63.205  0.00  0.00    +0.000 A 
ATOM     12  C   UNL     1      27.413  46.542  64.009  0.00  0.00    +0.000 A 
ATOM     13  C   UNL     1      28.578  45.797  63.858  0.00  0.00    +0.000 A 
ATOM     14  C   UNL     1      29.489  46.126  62.878  0.00  0.00    +0.000 A 
ATOM     15  C   UNL     1      29.192  47.209  62.077  0.00  0.00    +0.000 A 
ATOM     16  C   UNL     1      28.035  47.948  62.229  0.00  0.00    +0.000 A 
ATOM     17  O   UNL     1      27.757  49.049  61.396  0.00  0.00    +0.000 OA
BRANCH  11  19
ATOM     18  C   UNL     1      25.268  48.275  64.606  0.00  0.00    +0.000 C 
ATOM     19  O   UNL     1      25.940  48.364  63.373  0.00  0.00    +0.000 OA
ENDBRANCH  11  19
ENDBRANCH   1  14
TORSDOF 3
ENDMDL
MODEL 6
REMARK VINA RESULT:      -6.2     12.563     13.719
REMARK  Name = 
REMARK  3 active torsions:
REMARK  status: ('A' for Active; 'I' for Inactive)
REMARK    1  A    between atoms: O_2  and  C_3
REMARK    2  A    between atoms: C_6  and  C_7
REMARK    3  A    between atoms: C_8  and  C_9
REMARK                            x       y       z     vdW  Elec       q    Type
REMARK                         _______ _______ _______ _____ _____    ______ ____
ROOT
ATOM      1  C   UNL     1      36.371  56.003  57.466  0.00  0.00    +0.000 C 
ATOM      2  C   UNL     1      35.759  57.142  57.413  0.00  0.00    +0.000 C 
ENDROOT
BRANCH   2   3
ATOM      3  C   UNL     1      36.158  58.146  56.443  0.00  0.00    +0.000 A 
ATOM      4  C   UNL     1      35.723  58.011  55.144  0.00  0.00    +0.000 A 
ATOM      5  C   UNL     1      36.029  58.887  54.141  0.00  0.00    +0.000 A 
ATOM      6  O   UNL     1      35.556  58.692  52.852  0.00  0.00    +0.000 OA
ATOM      7  C   UNL     1      36.831  59.990  54.440  0.00  0.00    +0.000 A 
ATOM      8  C   UNL     1      37.281  60.148  55.734  0.00  0.00    +0.000 A 
ATOM      9  O   UNL     1      38.089  61.257  56.038  0.00  0.00    +0.000 OA
ATOM     10  C   UNL     1      36.948  59.232  56.734  0.00  0.00    +0.000 A 
ENDBRANCH   2   3
BRANCH   1  14
ATOM     11  C   UNL     1      35.342  52.872  60.193  0.00  0.00    +0.000 A 
ATOM     12  C   UNL     1      36.609  52.949  59.650  0.00  0.00    +0.000 A 
ATOM     13  C   UNL     1      36.977  53.954  58.761  0.00  0.00    +0.000 A 
ATOM     14  C   UNL     1      36.067  54.919  58.389  0.00  0.00    +0.000 A 
ATOM     15  C   UNL     1      34.802  54.839  58.935  0.00  0.00    +0.000 A 
ATOM     16  C   UNL     1      34.438  53.840  59.818  0.00  0.00    +0.000 A 
ATOM     17  O   UNL     1      33.139  53.782  60.359  0.00  0.00    +0.000 OA
BRANCH  11  19
ATOM     18  C   UNL     1      34.928  50.533  60.603  0.00  0.00    +0.000 C 
ATOM     19  O   UNL     1      34.990  51.852  61.088  0.00  0.00    +0.000 OA
ENDBRANCH  11  19
ENDBRANCH   1  14
TORSDOF 3
ENDMDL
MODEL 7
REMARK VINA RESULT:      -6.1      1.638      2.664
REMARK  Name = 
REMARK  3 active torsions:
REMARK  status: ('A' for Active; 'I' for Inactive)
REMARK    1  A    between atoms: O_2  and  C_3
REMARK    2  A    between atoms: C_6  and  C_7
REMARK    3  A    between atoms: C_8  and  C_9
REMARK                            x       y       z     vdW  Elec       q    Type
REMARK                         _______ _______ _______ _____ _____    ______ ____
ROOT
ATOM      1  C   UNL     1      29.877  44.736  62.053  0.00  0.00    +0.000 C 
ATOM      2  C   UNL     1      29.934  45.954  62.486  0.00  0.00    +0.000 C 
ENDROOT
BRANCH   2   3
ATOM      3  C   UNL     1      28.717  46.720  62.688  0.00  0.00    +0.000 A 
ATOM      4  C   UNL     1      27.937  46.432  63.785  0.00  0.00    +0.000 A 
ATOM      5  C   UNL     1      26.772  47.080  64.086  0.00  0.00    +0.000 A 
ATOM      6  O   UNL     1      26.033  46.740  65.209  0.00  0.00    +0.000 OA
ATOM      7  C   UNL     1      26.335  48.097  63.235  0.00  0.00    +0.000 A 
ATOM      8  C   UNL     1      27.098  48.405  62.128  0.00  0.00    +0.000 A 
ATOM      9  O   UNL     1      26.661  49.428  61.270  0.00  0.00    +0.000 OA
ATOM     10  C   UNL     1      28.285  47.721  61.853  0.00  0.00    +0.000 A 
ENDBRANCH   2   3
BRANCH   1  14
ATOM     11  C   UNL     1      33.162  42.078  61.395  0.00  0.00    +0.000 A 
ATOM     12  C   UNL     1      33.254  43.412  61.054  0.00  0.00    +0.000 A 
ATOM     13  C   UNL     1      32.205  44.304  61.255  0.00  0.00    +0.000 A 
ATOM     14  C   UNL     1      31.021  43.869  61.810  0.00  0.00    +0.000 A 
ATOM     15  C   UNL     1      30.935  42.535  62.148  0.00  0.00    +0.000 A 
ATOM     16  C   UNL     1      31.977  41.651  61.949  0.00  0.00    +0.000 A 
ATOM     17  O   UNL     1      31.861  40.292  62.303  0.00  0.00    +0.000 OA
BRANCH  11  19
ATOM     18  C   UNL     1      34.644  40.950  59.862  0.00  0.00    +0.000 C 
ATOM     19  O   UNL     1      34.231  41.194  61.185  0.00  0.00    +0.000 OA
ENDBRANCH  11  19
ENDBRANCH   1  14
TORSDOF 3
ENDMDL
MODEL 8
REMARK VINA RESULT:      -6.1     12.829     14.433
REMARK  Name = 
REMARK  3 active torsions:
REMARK  status: ('A' for Active; 'I' for Inactive)
REMARK    1  A    between atoms: O_2  and  C_3
REMARK    2  A    between atoms: C_6  and  C_7
REMARK    3  A    between atoms: C_8  and  C_9
REMARK                            x       y       z     vdW  Elec       q    Type
REMARK                         _______ _______ _______ _____ _____    ______ ____
ROOT
ATOM      1  C   UNL     1      35.711  56.736  57.871  0.00  0.00    +0.000 C 
ATOM      2  C   UNL     1      36.542  55.744  57.870  0.00  0.00    +0.000 C 
ENDROOT
BRANCH   2   3
ATOM      3  C   UNL     1      36.678  54.899  59.042  0.00  0.00    +0.000 A 
ATOM      4  C   UNL     1      37.944  54.621  59.507  0.00  0.00    +0.000 A 
ATOM      5  C   UNL     1      38.203  53.841  60.598  0.00  0.00    +0.000 A 
ATOM      6  O   UNL     1      39.505  53.601  61.013  0.00  0.00    +0.000 OA
ATOM      7  C   UNL     1      37.127  53.285  61.293  0.00  0.00    +0.000 A 
ATOM      8  C   UNL     1      35.848  53.548  60.848  0.00  0.00    +0.000 A 
ATOM      9  O   UNL     1      34.763  52.990  61.545  0.00  0.00    +0.000 OA
ATOM     10  C   UNL     1      35.621  54.351  59.727  0.00  0.00    +0.000 A 
ENDBRANCH   2   3
BRANCH   1  14
ATOM     11  C   UNL     1      35.160  59.371  54.547  0.00  0.00    +0.000 A 
ATOM     12  C   UNL     1      34.317  59.425  55.638  0.00  0.00    +0.000 A 
ATOM     13  C   UNL     1      34.469  58.584  56.736  0.00  0.00    +0.000 A 
ATOM     14  C   UNL     1      35.484  57.652  56.762  0.00  0.00    +0.000 A 
ATOM     15  C   UNL     1      36.323  57.602  55.669  0.00  0.00    +0.000 A 
ATOM     16  C   UNL     1      36.172  58.439  54.580  0.00  0.00    +0.000 A 
ATOM     17  O   UNL     1      37.044  58.366  53.476  0.00  0.00    +0.000 OA
BRANCH  11  19
ATOM     18  C   UNL     1      35.312  61.588  53.611  0.00  0.00    +0.000 C 
ATOM     19  O   UNL     1      34.992  60.227  53.449  0.00  0.00    +0.000 OA
ENDBRANCH  11  19
ENDBRANCH   1  14
TORSDOF 3
ENDMDL
MODEL 9
REMARK VINA RESULT:      -6.1      3.621      4.314
REMARK  Name = 
REMARK  3 active torsions:
REMARK  status: ('A' for Active; 'I' for Inactive)
REMARK    1  A    between atoms: O_2  and  C_3
REMARK    2  A    between atoms: C_6  and  C_7
REMARK    3  A    between atoms: C_8  and  C_9
REMARK                            x       y       z     vdW  Elec       q    Type
REMARK                         _______ _______ _______ _____ _____    ______ ____
ROOT
ATOM      1  C   UNL     1      28.462  43.849  62.282  0.00  0.00    +0.000 C 
ATOM      2  C   UNL     1      28.759  44.802  63.106  0.00  0.00    +0.000 C 
ENDROOT
BRANCH   2   3
ATOM      3  C   UNL     1      28.098  46.090  63.006  0.00  0.00    +0.000 A 
ATOM      4  C   UNL     1      28.647  47.047  62.183  0.00  0.00    +0.000 A 
ATOM      5  C   UNL     1      28.121  48.296  62.004  0.00  0.00    +0.000 A 
ATOM      6  O   UNL     1      28.726  49.213  61.157  0.00  0.00    +0.000 OA
ATOM      7  C   UNL     1      26.955  48.634  62.694  0.00  0.00    +0.000 A 
ATOM      8  C   UNL     1      26.384  47.693  63.526  0.00  0.00    +0.000 A 
ATOM      9  O   UNL     1      25.210  48.030  64.222  0.00  0.00    +0.000 OA
ATOM     10  C   UNL     1      26.950  46.426  63.684  0.00  0.00    +0.000 A 
ENDBRANCH   2   3
BRANCH   1  14
ATOM     11  C   UNL     1      30.074  39.887  62.327  0.00  0.00    +0.000 A 
ATOM     12  C   UNL     1      30.828  40.952  61.879  0.00  0.00    +0.000 A 
ATOM     13  C   UNL     1      30.336  42.253  61.852  0.00  0.00    +0.000 A 
ATOM     14  C   UNL     1      29.053  42.518  62.279  0.00  0.00    +0.000 A 
ATOM     15  C   UNL     1      28.303  41.450  62.725  0.00  0.00    +0.000 A 
ATOM     16  C   UNL     1      28.793  40.159  62.753  0.00  0.00    +0.000 A 
ATOM     17  O   UNL     1      28.005  39.088  63.214  0.00  0.00    +0.000 OA
BRANCH  11  19
ATOM     18  C   UNL     1      31.531  38.253  63.338  0.00  0.00    +0.000 C 
ATOM     19  O   UNL     1      30.588  38.582  62.347  0.00  0.00    +0.000 OA
ENDBRANCH  11  19
ENDBRANCH   1  14
TORSDOF 3
ENDMDL
MODEL 10
REMARK VINA RESULT:      -5.9      2.075      2.530
REMARK  Name = 
REMARK  3 active torsions:
REMARK  status: ('A' for Active; 'I' for Inactive)
REMARK    1  A    between atoms: O_2  and  C_3
REMARK    2  A    between atoms: C_6  and  C_7
REMARK    3  A    between atoms: C_8  and  C_9
REMARK                            x       y       z     vdW  Elec       q    Type
REMARK                         _______ _______ _______ _____ _____    ______ ____
ROOT
ATOM      1  C   UNL     1      29.411  44.385  62.068  0.00  0.00    +0.000 C 
ATOM      2  C   UNL     1      29.537  45.416  62.841  0.00  0.00    +0.000 C 
ENDROOT
BRANCH   2   3
ATOM      3  C   UNL     1      28.433  46.342  63.015  0.00  0.00    +0.000 A 
ATOM      4  C   UNL     1      28.248  47.326  62.071  0.00  0.00    +0.000 A 
ATOM      5  C   UNL     1      27.247  48.256  62.122  0.00  0.00    +0.000 A 
ATOM      6  O   UNL     1      27.117  49.222  61.135  0.00  0.00    +0.000 OA
ATOM      7  C   UNL     1      26.353  48.216  63.193  0.00  0.00    +0.000 A 
ATOM      8  C   UNL     1      26.517  47.240  64.154  0.00  0.00    +0.000 A 
ATOM      9  O   UNL     1      25.618  47.197  65.233  0.00  0.00    +0.000 OA
ATOM     10  C   UNL     1      27.551  46.305  64.069  0.00  0.00    +0.000 A 
ENDBRANCH   2   3
BRANCH   1  14
ATOM     11  C   UNL     1      32.345  41.354  61.365  0.00  0.00    +0.000 A 
ATOM     12  C   UNL     1      32.610  42.675  61.071  0.00  0.00    +0.000 A 
ATOM     13  C   UNL     1      31.679  43.687  61.288  0.00  0.00    +0.000 A 
ATOM     14  C   UNL     1      30.440  43.388  61.812  0.00  0.00    +0.000 A 
ATOM     15  C   UNL     1      30.180  42.065  62.104  0.00  0.00    +0.000 A 
ATOM     16  C   UNL     1      31.106  41.063  61.889  0.00  0.00    +0.000 A 
ATOM     17  O   UNL     1      30.813  39.720  62.197  0.00  0.00    +0.000 OA
BRANCH  11  19
ATOM     18  C   UNL     1      33.545  39.951  59.814  0.00  0.00    +0.000 C 
ATOM     19  O   UNL     1      33.297  40.348  61.140  0.00  0.00    +0.000 OA
ENDBRANCH  11  19
ENDBRANCH   1  14
TORSDOF 3
ENDMDL
