MODEL 1
REMARK VINA RESULT:      -6.4      0.000      0.000
REMARK  Name = 
REMARK  5 active torsions:
REMARK  status: ('A' for Active; 'I' for Inactive)
REMARK    1  A    between atoms: O_2  and  C_3
REMARK    2  A    between atoms: C_5  and  C_6
REMARK    3  A    between atoms: C_7  and  C_9
REMARK    4  A    between atoms: C_19  and  O_20
REMARK    5  A    between atoms: C_22  and  O_23
REMARK                            x       y       z     vdW  Elec       q    Type
REMARK                         _______ _______ _______ _____ _____    ______ ____
ROOT
ATOM      1  C   UNL     1      39.062  53.645  60.460  0.00  0.00    +0.000 A 
ATOM      2  C   UNL     1      38.468  54.295  59.407  0.00  0.00    +0.000 A 
ATOM      3  C   UNL     1      37.105  54.440  59.257  0.00  0.00    +0.000 A 
ATOM      4  C   UNL     1      36.309  53.888  60.246  0.00  0.00    +0.000 A 
ATOM      5  C   UNL     1      36.846  53.229  61.326  0.00  0.00    +0.000 A 
ATOM      6  C   UNL     1      38.230  53.108  61.431  0.00  0.00    +0.000 A 
ENDROOT
BRANCH   3   7
ATOM      7  C   UNL     1      36.513  55.165  58.128  0.00  0.00    +0.000 C 
ATOM      8  C   UNL     1      36.337  56.472  58.207  0.00  0.00    +0.000 C 
ATOM      9  C   UNL     1      36.765  57.137  59.484  0.00  0.00    +0.000 C 
BRANCH   8  10
ATOM     10  C   UNL     1      35.781  57.297  57.146  0.00  0.00    +0.000 A 
ATOM     11  C   UNL     1      34.687  58.129  57.368  0.00  0.00    +0.000 A 
ATOM     12  C   UNL     1      34.164  58.918  56.384  0.00  0.00    +0.000 A 
ATOM     13  C   UNL     1      34.696  58.943  55.087  0.00  0.00    +0.000 A 
ATOM     14  C   UNL     1      35.776  58.127  54.855  0.00  0.00    +0.000 A 
ATOM     15  C   UNL     1      36.311  57.313  55.875  0.00  0.00    +0.000 A 
ATOM     16  O   UNL     1      36.126  58.314  53.524  0.00  0.00    +0.000 OA
ATOM     17  C   UNL     1      35.098  59.091  52.884  0.00  0.00    +0.000 C 
ATOM     18  O   UNL     1      34.346  59.643  53.948  0.00  0.00    +0.000 OA
ENDBRANCH   8  10
ENDBRANCH   3   7
BRANCH   1  20
ATOM     19  C   UNL     1      41.190  53.048  59.488  0.00  0.00    +0.000 C 
ATOM     20  O   UNL     1      40.437  53.494  60.608  0.00  0.00    +0.000 OA
ENDBRANCH   1  20
BRANCH   5  21
ATOM     21  O   UNL     1      36.093  52.668  62.340  0.00  0.00    +0.000 OA
ATOM     22  C   UNL     1      35.328  51.489  62.202  0.00  0.00    +0.000 C 
ENDBRANCH   5  21
BRANCH   6  23
ATOM     23  O   UNL     1      38.832  52.446  62.505  0.00  0.00    +0.000 OA
ATOM     24  C   UNL     1      39.088  51.038  62.436  0.00  0.00    +0.000 C 
ENDBRANCH   6  23
TORSDOF 5
ENDMDL
MODEL 2
REMARK VINA RESULT:      -6.3      1.084      2.597
REMARK  Name = 
REMARK  5 active torsions:
REMARK  status: ('A' for Active; 'I' for Inactive)
REMARK    1  A    between atoms: O_2  and  C_3
REMARK    2  A    between atoms: C_5  and  C_6
REMARK    3  A    between atoms: C_7  and  C_9
REMARK    4  A    between atoms: C_19  and  O_20
REMARK    5  A    between atoms: C_22  and  O_23
REMARK                            x       y       z     vdW  Elec       q    Type
REMARK                         _______ _______ _______ _____ _____    ______ ____
ROOT
ATOM      1  C   UNL     1      36.151  53.177  61.472  0.00  0.00    +0.000 A 
ATOM      2  C   UNL     1      35.867  53.870  60.321  0.00  0.00    +0.000 A 
ATOM      3  C   UNL     1      36.761  54.699  59.677  0.00  0.00    +0.000 A 
ATOM      4  C   UNL     1      38.016  54.822  60.246  0.00  0.00    +0.000 A 
ATOM      5  C   UNL     1      38.361  54.150  61.395  0.00  0.00    +0.000 A 
ATOM      6  C   UNL     1      37.421  53.325  62.009  0.00  0.00    +0.000 A 
ENDROOT
BRANCH   3   7
ATOM      7  C   UNL     1      36.424  55.400  58.434  0.00  0.00    +0.000 C 
ATOM      8  C   UNL     1      35.820  56.574  58.485  0.00  0.00    +0.000 C 
ATOM      9  C   UNL     1      35.512  57.118  59.851  0.00  0.00    +0.000 C 
BRANCH   8  10
ATOM     10  C   UNL     1      35.458  57.370  57.323  0.00  0.00    +0.000 A 
ATOM     11  C   UNL     1      34.395  58.268  57.358  0.00  0.00    +0.000 A 
ATOM     12  C   UNL     1      34.052  59.030  56.279  0.00  0.00    +0.000 A 
ATOM     13  C   UNL     1      34.750  58.959  55.065  0.00  0.00    +0.000 A 
ATOM     14  C   UNL     1      35.801  58.076  55.017  0.00  0.00    +0.000 A 
ATOM     15  C   UNL     1      36.149  57.291  56.135  0.00  0.00    +0.000 A 
ATOM     16  O   UNL     1      36.332  58.173  53.737  0.00  0.00    +0.000 OA
ATOM     17  C   UNL     1      35.444  58.968  52.931  0.00  0.00    +0.000 C 
ATOM     18  O   UNL     1      34.593  59.615  53.858  0.00  0.00    +0.000 OA
ENDBRANCH   8  10
ENDBRANCH   3   7
BRANCH   1  20
ATOM     19  C   UNL     1      35.020  51.047  61.594  0.00  0.00    +0.000 C 
ATOM     20  O   UNL     1      35.247  52.346  62.125  0.00  0.00    +0.000 OA
ENDBRANCH   1  20
BRANCH   5  21
ATOM     21  O   UNL     1      39.602  54.236  61.997  0.00  0.00    +0.000 OA
ATOM     22  C   UNL     1      40.106  55.401  62.614  0.00  0.00    +0.000 C 
ENDBRANCH   5  21
BRANCH   6  23
ATOM     23  O   UNL     1      37.713  52.621  63.182  0.00  0.00    +0.000 OA
ATOM     24  C   UNL     1      38.383  51.356  63.118  0.00  0.00    +0.000 C 
ENDBRANCH   6  23
TORSDOF 5
ENDMDL
MODEL 3
REMARK VINA RESULT:      -6.2      1.588      2.230
REMARK  Name = 
REMARK  5 active torsions:
REMARK  status: ('A' for Active; 'I' for Inactive)
REMARK    1  A    between atoms: O_2  and  C_3
REMARK    2  A    between atoms: C_5  and  C_6
REMARK    3  A    between atoms: C_7  and  C_9
REMARK    4  A    between atoms: C_19  and  O_20
REMARK    5  A    between atoms: C_22  and  O_23
REMARK                            x       y       z     vdW  Elec       q    Type
REMARK                         _______ _______ _______ _____ _____    ______ ____
ROOT
ATOM      1  C   UNL     1      37.424  54.470  60.770  0.00  0.00    +0.000 A 
ATOM      2  C   UNL     1      37.386  55.218  59.619  0.00  0.00    +0.000 A 
ATOM      3  C   UNL     1      36.467  55.035  58.608  0.00  0.00    +0.000 A 
ATOM      4  C   UNL     1      35.533  54.030  58.791  0.00  0.00    +0.000 A 
ATOM      5  C   UNL     1      35.518  53.251  59.923  0.00  0.00    +0.000 A 
ATOM      6  C   UNL     1      36.469  53.474  60.916  0.00  0.00    +0.000 A 
ENDROOT
BRANCH   3   7
ATOM      7  C   UNL     1      36.447  55.875  57.406  0.00  0.00    +0.000 C 
ATOM      8  C   UNL     1      35.746  56.994  57.398  0.00  0.00    +0.000 C 
ATOM      9  C   UNL     1      34.997  57.333  58.655  0.00  0.00    +0.000 C 
BRANCH   8  10
ATOM     10  C   UNL     1      35.669  57.915  56.274  0.00  0.00    +0.000 A 
ATOM     11  C   UNL     1      36.106  57.551  55.004  0.00  0.00    +0.000 A 
ATOM     12  C   UNL     1      36.027  58.401  53.938  0.00  0.00    +0.000 A 
ATOM     13  C   UNL     1      35.501  59.696  54.055  0.00  0.00    +0.000 A 
ATOM     14  C   UNL     1      35.066  60.067  55.304  0.00  0.00    +0.000 A 
ATOM     15  C   UNL     1      35.151  59.185  56.400  0.00  0.00    +0.000 A 
ATOM     16  O   UNL     1      34.595  61.368  55.181  0.00  0.00    +0.000 OA
ATOM     17  C   UNL     1      34.958  61.866  53.881  0.00  0.00    +0.000 C 
ATOM     18  O   UNL     1      35.323  60.716  53.141  0.00  0.00    +0.000 OA
ENDBRANCH   8  10
ENDBRANCH   3   7
BRANCH   1  20
ATOM     19  C   UNL     1      39.736  54.647  61.445  0.00  0.00    +0.000 C 
ATOM     20  O   UNL     1      38.356  54.650  61.786  0.00  0.00    +0.000 OA
ENDBRANCH   1  20
BRANCH   5  21
ATOM     21  O   UNL     1      34.602  52.242  60.153  0.00  0.00    +0.000 OA
ATOM     22  C   UNL     1      34.625  50.987  59.506  0.00  0.00    +0.000 C 
ENDBRANCH   5  21
BRANCH   6  23
ATOM     23  O   UNL     1      36.505  52.711  62.087  0.00  0.00    +0.000 OA
ATOM     24  C   UNL     1      37.284  51.510  62.145  0.00  0.00    +0.000 C 
ENDBRANCH   6  23
TORSDOF 5
ENDMDL
MODEL 4
REMARK VINA RESULT:      -6.2      1.689      2.749
REMARK  Name = 
REMARK  5 active torsions:
REMARK  status: ('A' for Active; 'I' for Inactive)
REMARK    1  A    between atoms: O_2  and  C_3
REMARK    2  A    between atoms: C_5  and  C_6
REMARK    3  A    between atoms: C_7  and  C_9
REMARK    4  A    between atoms: C_19  and  O_20
REMARK    5  A    between atoms: C_22  and  O_23
REMARK                            x       y       z     vdW  Elec       q    Type
REMARK                         _______ _______ _______ _____ _____    ______ ____
ROOT
ATOM      1  C   UNL     1      36.413  52.416  59.190  0.00  0.00    +0.000 A 
ATOM      2  C   UNL     1      36.150  53.495  58.382  0.00  0.00    +0.000 A 
ATOM      3  C   UNL     1      36.738  54.733  58.531  0.00  0.00    +0.000 A 
ATOM      4  C   UNL     1      37.648  54.870  59.564  0.00  0.00    +0.000 A 
ATOM      5  C   UNL     1      37.955  53.825  60.403  0.00  0.00    +0.000 A 
ATOM      6  C   UNL     1      37.333  52.594  60.213  0.00  0.00    +0.000 A 
ENDROOT
BRANCH   3   7
ATOM      7  C   UNL     1      36.446  55.852  57.629  0.00  0.00    +0.000 C 
ATOM      8  C   UNL     1      35.453  56.678  57.906  0.00  0.00    +0.000 C 
ATOM      9  C   UNL     1      34.670  56.399  59.157  0.00  0.00    +0.000 C 
BRANCH   8  10
ATOM     10  C   UNL     1      35.085  57.831  57.099  0.00  0.00    +0.000 A 
ATOM     11  C   UNL     1      33.870  58.487  57.278  0.00  0.00    +0.000 A 
ATOM     12  C   UNL     1      33.518  59.578  56.536  0.00  0.00    +0.000 A 
ATOM     13  C   UNL     1      34.360  60.110  55.549  0.00  0.00    +0.000 A 
ATOM     14  C   UNL     1      35.562  59.472  55.363  0.00  0.00    +0.000 A 
ATOM     15  C   UNL     1      35.918  58.345  56.131  0.00  0.00    +0.000 A 
ATOM     16  O   UNL     1      36.216  60.162  54.350  0.00  0.00    +0.000 OA
ATOM     17  C   UNL     1      35.294  61.098  53.763  0.00  0.00    +0.000 C 
ATOM     18  O   UNL     1      34.225  61.183  54.688  0.00  0.00    +0.000 OA
ENDBRANCH   8  10
ENDBRANCH   3   7
BRANCH   1  20
ATOM     19  C   UNL     1      34.451  51.027  59.418  0.00  0.00    +0.000 C 
ATOM     20  O   UNL     1      35.815  51.169  59.044  0.00  0.00    +0.000 OA
ENDBRANCH   1  20
BRANCH   5  21
ATOM     21  O   UNL     1      38.861  53.912  61.444  0.00  0.00    +0.000 OA
ATOM     22  C   UNL     1      40.191  54.364  61.303  0.00  0.00    +0.000 C 
ENDBRANCH   5  21
BRANCH   6  23
ATOM     23  O   UNL     1      37.603  51.497  61.036  0.00  0.00    +0.000 OA
ATOM     24  C   UNL     1      38.711  50.633  60.752  0.00  0.00    +0.000 C 
ENDBRANCH   6  23
TORSDOF 5
ENDMDL
MODEL 5
REMARK VINA RESULT:      -6.1      2.223      3.156
REMARK  Name = 
REMARK  5 active torsions:
REMARK  status: ('A' for Active; 'I' for Inactive)
REMARK    1  A    between atoms: O_2  and  C_3
REMARK    2  A    between atoms: C_5  and  C_6
REMARK    3  A    between atoms: C_7  and  C_9
REMARK    4  A    between atoms: C_19  and  O_20
REMARK    5  A    between atoms: C_22  and  O_23
REMARK                            x       y       z     vdW  Elec       q    Type
REMARK                         _______ _______ _______ _____ _____    ______ ____
ROOT
ATOM      1  C   UNL     1      38.052  54.890  59.910  0.00  0.00    +0.000 A 
ATOM      2  C   UNL     1      37.192  55.879  59.503  0.00  0.00    +0.000 A 
ATOM      3  C   UNL     1      36.056  55.656  58.753  0.00  0.00    +0.000 A 
ATOM      4  C   UNL     1      35.790  54.344  58.403  0.00  0.00    +0.000 A 
ATOM      5  C   UNL     1      36.612  53.310  58.784  0.00  0.00    +0.000 A 
ATOM      6  C   UNL     1      37.749  53.588  59.540  0.00  0.00    +0.000 A 
ENDROOT
BRANCH   3   7
ATOM      7  C   UNL     1      35.150  56.741  58.362  0.00  0.00    +0.000 C 
ATOM      8  C   UNL     1      35.288  57.318  57.182  0.00  0.00    +0.000 C 
ATOM      9  C   UNL     1      36.396  56.810  56.305  0.00  0.00    +0.000 C 
BRANCH   8  10
ATOM     10  C   UNL     1      34.437  58.385  56.678  0.00  0.00    +0.000 A 
ATOM     11  C   UNL     1      34.590  58.891  55.390  0.00  0.00    +0.000 A 
ATOM     12  C   UNL     1      33.790  59.884  54.900  0.00  0.00    +0.000 A 
ATOM     13  C   UNL     1      32.762  60.456  55.663  0.00  0.00    +0.000 A 
ATOM     14  C   UNL     1      32.601  59.965  56.936  0.00  0.00    +0.000 A 
ATOM     15  C   UNL     1      33.431  58.941  57.436  0.00  0.00    +0.000 A 
ATOM     16  O   UNL     1      31.543  60.671  57.493  0.00  0.00    +0.000 OA
ATOM     17  C   UNL     1      31.205  61.761  56.617  0.00  0.00    +0.000 C 
ATOM     18  O   UNL     1      31.842  61.451  55.391  0.00  0.00    +0.000 OA
ENDBRANCH   8  10
ENDBRANCH   3   7
BRANCH   1  20
ATOM     19  C   UNL     1      39.060  55.697  61.950  0.00  0.00    +0.000 C 
ATOM     20  O   UNL     1      39.201  55.115  60.661  0.00  0.00    +0.000 OA
ENDBRANCH   1  20
BRANCH   5  21
ATOM     21  O   UNL     1      36.384  51.985  58.464  0.00  0.00    +0.000 OA
ATOM     22  C   UNL     1      35.199  51.285  58.779  0.00  0.00    +0.000 C 
ENDBRANCH   5  21
BRANCH   6  23
ATOM     23  O   UNL     1      38.623  52.578  59.953  0.00  0.00    +0.000 OA
ATOM     24  C   UNL     1      38.387  51.871  61.177  0.00  0.00    +0.000 C 
ENDBRANCH   6  23
TORSDOF 5
ENDMDL
MODEL 6
REMARK VINA RESULT:      -6.1      2.046      8.595
REMARK  Name = 
REMARK  5 active torsions:
REMARK  status: ('A' for Active; 'I' for Inactive)
REMARK    1  A    between atoms: O_2  and  C_3
REMARK    2  A    between atoms: C_5  and  C_6
REMARK    3  A    between atoms: C_7  and  C_9
REMARK    4  A    between atoms: C_19  and  O_20
REMARK    5  A    between atoms: C_22  and  O_23
REMARK                            x       y       z     vdW  Elec       q    Type
REMARK                         _______ _______ _______ _____ _____    ______ ____
ROOT
ATOM      1  C   UNL     1      36.595  60.393  55.511  0.00  0.00    +0.000 A 
ATOM      2  C   UNL     1      36.821  59.185  56.124  0.00  0.00    +0.000 A 
ATOM      3  C   UNL     1      35.869  58.198  56.262  0.00  0.00    +0.000 A 
ATOM      4  C   UNL     1      34.616  58.465  55.739  0.00  0.00    +0.000 A 
ATOM      5  C   UNL     1      34.330  59.654  55.110  0.00  0.00    +0.000 A 
ATOM      6  C   UNL     1      35.327  60.621  54.998  0.00  0.00    +0.000 A 
ENDROOT
BRANCH   3   7
ATOM      7  C   UNL     1      36.161  56.911  56.902  0.00  0.00    +0.000 C 
ATOM      8  C   UNL     1      35.893  56.740  58.184  0.00  0.00    +0.000 C 
ATOM      9  C   UNL     1      35.295  57.909  58.913  0.00  0.00    +0.000 C 
BRANCH   8  10
ATOM     10  C   UNL     1      36.118  55.505  58.919  0.00  0.00    +0.000 A 
ATOM     11  C   UNL     1      37.296  54.777  58.775  0.00  0.00    +0.000 A 
ATOM     12  C   UNL     1      37.525  53.623  59.468  0.00  0.00    +0.000 A 
ATOM     13  C   UNL     1      36.590  53.098  60.371  0.00  0.00    +0.000 A 
ATOM     14  C   UNL     1      35.423  53.807  60.521  0.00  0.00    +0.000 A 
ATOM     15  C   UNL     1      35.192  54.997  59.802  0.00  0.00    +0.000 A 
ATOM     16  O   UNL     1      34.660  53.108  61.448  0.00  0.00    +0.000 OA
ATOM     17  C   UNL     1      35.286  51.836  61.692  0.00  0.00    +0.000 C 
ATOM     18  O   UNL     1      36.595  51.970  61.170  0.00  0.00    +0.000 OA
ENDBRANCH   8  10
ENDBRANCH   3   7
BRANCH   1  20
ATOM     19  C   UNL     1      38.228  61.839  56.547  0.00  0.00    +0.000 C 
ATOM     20  O   UNL     1      37.554  61.392  55.378  0.00  0.00    +0.000 OA
ENDBRANCH   1  20
BRANCH   5  21
ATOM     21  O   UNL     1      33.097  59.963  54.567  0.00  0.00    +0.000 OA
ATOM     22  C   UNL     1      31.994  60.426  55.316  0.00  0.00    +0.000 C 
ENDBRANCH   5  21
BRANCH   6  23
ATOM     23  O   UNL     1      35.094  61.850  54.373  0.00  0.00    +0.000 OA
ATOM     24  C   UNL     1      34.670  62.983  55.140  0.00  0.00    +0.000 C 
ENDBRANCH   6  23
TORSDOF 5
ENDMDL
MODEL 7
REMARK VINA RESULT:      -6.1      2.437      8.481
REMARK  Name = 
REMARK  5 active torsions:
REMARK  status: ('A' for Active; 'I' for Inactive)
REMARK    1  A    between atoms: O_2  and  C_3
REMARK    2  A    between atoms: C_5  and  C_6
REMARK    3  A    between atoms: C_7  and  C_9
REMARK    4  A    between atoms: C_19  and  O_20
REMARK    5  A    between atoms: C_22  and  O_23
REMARK                            x       y       z     vdW  Elec       q    Type
REMARK                         _______ _______ _______ _____ _____    ______ ____
ROOT
ATOM      1  C   UNL     1      35.387  59.022  55.358  0.00  0.00    +0.000 A 
ATOM      2  C   UNL     1      35.580  57.767  55.881  0.00  0.00    +0.000 A 
ATOM      3  C   UNL     1      36.235  57.517  57.068  0.00  0.00    +0.000 A 
ATOM      4  C   UNL     1      36.716  58.617  57.757  0.00  0.00    +0.000 A 
ATOM      5  C   UNL     1      36.549  59.897  57.286  0.00  0.00    +0.000 A 
ATOM      6  C   UNL     1      35.882  60.098  56.080  0.00  0.00    +0.000 A 
ENDROOT
BRANCH   3   7
ATOM      7  C   UNL     1      36.396  56.161  57.603  0.00  0.00    +0.000 C 
ATOM      8  C   UNL     1      35.588  55.730  58.555  0.00  0.00    +0.000 C 
ATOM      9  C   UNL     1      34.535  56.688  59.034  0.00  0.00    +0.000 C 
BRANCH   8  10
ATOM     10  C   UNL     1      35.638  54.401  59.145  0.00  0.00    +0.000 A 
ATOM     11  C   UNL     1      36.070  53.297  58.416  0.00  0.00    +0.000 A 
ATOM     12  C   UNL     1      36.135  52.047  58.961  0.00  0.00    +0.000 A 
ATOM     13  C   UNL     1      35.771  51.795  60.292  0.00  0.00    +0.000 A 
ATOM     14  C   UNL     1      35.342  52.877  61.022  0.00  0.00    +0.000 A 
ATOM     15  C   UNL     1      35.276  54.165  60.452  0.00  0.00    +0.000 A 
ATOM     16  O   UNL     1      35.038  52.396  62.289  0.00  0.00    +0.000 OA
ATOM     17  C   UNL     1      35.074  50.958  62.254  0.00  0.00    +0.000 C 
ATOM     18  O   UNL     1      35.750  50.641  61.051  0.00  0.00    +0.000 OA
ENDBRANCH   8  10
ENDBRANCH   3   7
BRANCH   1  20
ATOM     19  C   UNL     1      35.366  58.878  52.947  0.00  0.00    +0.000 C 
ATOM     20  O   UNL     1      34.733  59.274  54.157  0.00  0.00    +0.000 OA
ENDBRANCH   1  20
BRANCH   5  21
ATOM     21  O   UNL     1      37.006  61.026  57.941  0.00  0.00    +0.000 OA
ATOM     22  C   UNL     1      38.367  61.380  58.058  0.00  0.00    +0.000 C 
ENDBRANCH   5  21
BRANCH   6  23
ATOM     23  O   UNL     1      35.687  61.377  55.550  0.00  0.00    +0.000 OA
ATOM     24  C   UNL     1      36.682  61.971  54.707  0.00  0.00    +0.000 C 
ENDBRANCH   6  23
TORSDOF 5
ENDMDL
MODEL 8
REMARK VINA RESULT:      -6.0      2.023      8.845
REMARK  Name = 
REMARK  5 active torsions:
REMARK  status: ('A' for Active; 'I' for Inactive)
REMARK    1  A    between atoms: O_2  and  C_3
REMARK    2  A    between atoms: C_5  and  C_6
REMARK    3  A    between atoms: C_7  and  C_9
REMARK    4  A    between atoms: C_19  and  O_20
REMARK    5  A    between atoms: C_22  and  O_23
REMARK                            x       y       z     vdW  Elec       q    Type
REMARK                         _______ _______ _______ _____ _____    ______ ____
ROOT
ATOM      1  C   UNL     1      34.334  59.632  54.926  0.00  0.00    +0.000 A 
ATOM      2  C   UNL     1      34.536  58.565  55.768  0.00  0.00    +0.000 A 
ATOM      3  C   UNL     1      34.212  58.566  57.108  0.00  0.00    +0.000 A 
ATOM      4  C   UNL     1      33.649  59.726  57.611  0.00  0.00    +0.000 A 
ATOM      5  C   UNL     1      33.419  60.824  56.817  0.00  0.00    +0.000 A 
ATOM      6  C   UNL     1      33.764  60.774  55.469  0.00  0.00    +0.000 A 
ENDROOT
BRANCH   3   7
ATOM      7  C   UNL     1      34.422  57.395  57.966  0.00  0.00    +0.000 C 
ATOM      8  C   UNL     1      35.566  57.249  58.610  0.00  0.00    +0.000 C 
ATOM      9  C   UNL     1      36.598  58.322  58.409  0.00  0.00    +0.000 C 
BRANCH   8  10
ATOM     10  C   UNL     1      35.878  56.144  59.503  0.00  0.00    +0.000 A 
ATOM     11  C   UNL     1      37.146  55.990  60.055  0.00  0.00    +0.000 A 
ATOM     12  C   UNL     1      37.449  54.965  60.904  0.00  0.00    +0.000 A 
ATOM     13  C   UNL     1      36.501  54.001  61.276  0.00  0.00    +0.000 A 
ATOM     14  C   UNL     1      35.245  54.142  60.737  0.00  0.00    +0.000 A 
ATOM     15  C   UNL     1      34.940  55.202  59.860  0.00  0.00    +0.000 A 
ATOM     16  O   UNL     1      34.489  53.090  61.237  0.00  0.00    +0.000 OA
ATOM     17  C   UNL     1      35.367  52.173  61.913  0.00  0.00    +0.000 C 
ATOM     18  O   UNL     1      36.570  52.895  62.101  0.00  0.00    +0.000 OA
ENDBRANCH   8  10
ENDBRANCH   3   7
BRANCH   1  20
ATOM     19  C   UNL     1      35.750  58.819  53.147  0.00  0.00    +0.000 C 
ATOM     20  O   UNL     1      34.666  59.633  53.576  0.00  0.00    +0.000 OA
ENDBRANCH   1  20
BRANCH   5  21
ATOM     21  O   UNL     1      32.853  62.001  57.273  0.00  0.00    +0.000 OA
ATOM     22  C   UNL     1      33.515  62.929  58.105  0.00  0.00    +0.000 C 
ENDBRANCH   5  21
BRANCH   6  23
ATOM     23  O   UNL     1      33.557  61.861  54.614  0.00  0.00    +0.000 OA
ATOM     24  C   UNL     1      34.616  62.793  54.359  0.00  0.00    +0.000 C 
ENDBRANCH   6  23
TORSDOF 5
ENDMDL
MODEL 9
REMARK VINA RESULT:      -6.0      2.359      8.681
REMARK  Name = 
REMARK  5 active torsions:
REMARK  status: ('A' for Active; 'I' for Inactive)
REMARK    1  A    between atoms: O_2  and  C_3
REMARK    2  A    between atoms: C_5  and  C_6
REMARK    3  A    between atoms: C_7  and  C_9
REMARK    4  A    between atoms: C_19  and  O_20
REMARK    5  A    between atoms: C_22  and  O_23
REMARK                            x       y       z     vdW  Elec       q    Type
REMARK                         _______ _______ _______ _____ _____    ______ ____
ROOT
ATOM      1  C   UNL     1      34.420  59.758  55.352  0.00  0.00    +0.000 A 
ATOM      2  C   UNL     1      34.794  58.471  55.654  0.00  0.00    +0.000 A 
ATOM      3  C   UNL     1      36.026  58.125  56.168  0.00  0.00    +0.000 A 
ATOM      4  C   UNL     1      36.922  59.157  56.384  0.00  0.00    +0.000 A 
ATOM      5  C   UNL     1      36.604  60.465  56.105  0.00  0.00    +0.000 A 
ATOM      6  C   UNL     1      35.346  60.764  55.585  0.00  0.00    +0.000 A 
ENDROOT
BRANCH   3   7
ATOM      7  C   UNL     1      36.375  56.740  56.501  0.00  0.00    +0.000 C 
ATOM      8  C   UNL     1      36.120  56.271  57.709  0.00  0.00    +0.000 C 
ATOM      9  C   UNL     1      35.477  57.219  58.682  0.00  0.00    +0.000 C 
BRANCH   8  10
ATOM     10  C   UNL     1      36.401  54.913  58.146  0.00  0.00    +0.000 A 
ATOM     11  C   UNL     1      35.383  53.979  58.319  0.00  0.00    +0.000 A 
ATOM     12  C   UNL     1      35.633  52.697  58.717  0.00  0.00    +0.000 A 
ATOM     13  C   UNL     1      36.933  52.238  58.975  0.00  0.00    +0.000 A 
ATOM     14  C   UNL     1      37.946  53.150  58.808  0.00  0.00    +0.000 A 
ATOM     15  C   UNL     1      37.681  54.472  58.399  0.00  0.00    +0.000 A 
ATOM     16  O   UNL     1      39.124  52.482  59.117  0.00  0.00    +0.000 OA
ATOM     17  C   UNL     1      38.792  51.207  59.695  0.00  0.00    +0.000 C 
ATOM     18  O   UNL     1      37.426  51.012  59.380  0.00  0.00    +0.000 OA
ENDBRANCH   8  10
ENDBRANCH   3   7
BRANCH   1  20
ATOM     19  C   UNL     1      32.095  60.290  55.727  0.00  0.00    +0.000 C 
ATOM     20  O   UNL     1      33.180  60.106  54.827  0.00  0.00    +0.000 OA
ENDBRANCH   1  20
BRANCH   5  21
ATOM     21  O   UNL     1      37.462  61.529  56.310  0.00  0.00    +0.000 OA
ATOM     22  C   UNL     1      37.865  61.990  57.582  0.00  0.00    +0.000 C 
ENDBRANCH   5  21
BRANCH   6  23
ATOM     23  O   UNL     1      34.968  62.074  55.279  0.00  0.00    +0.000 OA
ATOM     24  C   UNL     1      35.245  62.624  53.985  0.00  0.00    +0.000 C 
ENDBRANCH   6  23
TORSDOF 5
ENDMDL
MODEL 10
REMARK VINA RESULT:      -5.9      3.497      8.682
REMARK  Name = 
REMARK  5 active torsions:
REMARK  status: ('A' for Active; 'I' for Inactive)
REMARK    1  A    between atoms: O_2  and  C_3
REMARK    2  A    between atoms: C_5  and  C_6
REMARK    3  A    between atoms: C_7  and  C_9
REMARK    4  A    between atoms: C_19  and  O_20
REMARK    5  A    between atoms: C_22  and  O_23
REMARK                            x       y       z     vdW  Elec       q    Type
REMARK                         _______ _______ _______ _____ _____    ______ ____
ROOT
ATOM      1  C   UNL     1      36.159  53.644  59.008  0.00  0.00    +0.000 A 
ATOM      2  C   UNL     1      37.473  53.271  58.872  0.00  0.00    +0.000 A 
ATOM      3  C   UNL     1      37.953  52.011  59.159  0.00  0.00    +0.000 A 
ATOM      4  C   UNL     1      37.031  51.082  59.609  0.00  0.00    +0.000 A 
ATOM      5  C   UNL     1      35.701  51.395  59.762  0.00  0.00    +0.000 A 
ATOM      6  C   UNL     1      35.266  52.683  59.459  0.00  0.00    +0.000 A 
ENDROOT
BRANCH   3   7
ATOM      7  C   UNL     1      39.362  51.648  58.975  0.00  0.00    +0.000 C 
ATOM      8  C   UNL     1      40.216  51.802  59.971  0.00  0.00    +0.000 C 
ATOM      9  C   UNL     1      39.666  52.358  61.254  0.00  0.00    +0.000 C 
BRANCH   8  10
ATOM     10  C   UNL     1      41.627  51.457  59.913  0.00  0.00    +0.000 A 
ATOM     11  C   UNL     1      42.354  51.563  58.730  0.00  0.00    +0.000 A 
ATOM     12  C   UNL     1      43.683  51.255  58.664  0.00  0.00    +0.000 A 
ATOM     13  C   UNL     1      44.401  50.813  59.784  0.00  0.00    +0.000 A 
ATOM     14  C   UNL     1      43.695  50.704  60.957  0.00  0.00    +0.000 A 
ATOM     15  C   UNL     1      42.323  51.023  61.018  0.00  0.00    +0.000 A 
ATOM     16  O   UNL     1      44.597  50.254  61.913  0.00  0.00    +0.000 OA
ATOM     17  C   UNL     1      45.816  49.873  61.251  0.00  0.00    +0.000 C 
ATOM     18  O   UNL     1      45.722  50.447  59.961  0.00  0.00    +0.000 OA
ENDBRANCH   8  10
ENDBRANCH   3   7
BRANCH   1  20
ATOM     19  C   UNL     1      36.436  55.749  57.858  0.00  0.00    +0.000 C 
ATOM     20  O   UNL     1      35.676  54.917  58.724  0.00  0.00    +0.000 OA
ENDBRANCH   1  20
BRANCH   5  21
ATOM     21  O   UNL     1      34.743  50.500  60.201  0.00  0.00    +0.000 OA
ATOM     22  C   UNL     1      34.878  49.696  61.353  0.00  0.00    +0.000 C 
ENDBRANCH   5  21
BRANCH   6  23
ATOM     23  O   UNL     1      33.927  53.060  59.599  0.00  0.00    +0.000 OA
ATOM     24  C   UNL     1      32.996  52.831  58.534  0.00  0.00    +0.000 C 
ENDBRANCH   6  23
TORSDOF 5
ENDMDL
