MODEL 1
REMARK VINA RESULT:      -6.3      0.000      0.000
REMARK  Name = 
REMARK  5 active torsions:
REMARK  status: ('A' for Active; 'I' for Inactive)
REMARK    1  A    between atoms: O_2  and  C_3
REMARK    2  A    between atoms: C_5  and  C_6
REMARK    3  A    between atoms: C_7  and  C_8
REMARK    4  A    between atoms: C_11  and  O_12
REMARK    5  A    between atoms: C_18  and  O_19
REMARK                            x       y       z     vdW  Elec       q    Type
REMARK                         _______ _______ _______ _____ _____    ______ ____
ROOT
ATOM      1  C   UNL     1      36.077  56.016  57.687  0.00  0.00    +0.000 C 
ATOM      2  C   UNL     1      36.468  56.306  56.475  0.00  0.00    +0.000 C 
ENDROOT
BRANCH   2   3
ATOM      3  C   UNL     1      36.066  57.512  55.752  0.00  0.00    +0.000 A 
ATOM      4  C   UNL     1      35.024  58.308  56.147  0.00  0.00    +0.000 A 
ATOM      5  C   UNL     1      34.686  59.419  55.447  0.00  0.00    +0.000 A 
ATOM      6  C   UNL     1      35.379  59.779  54.318  0.00  0.00    +0.000 A 
ATOM      7  C   UNL     1      36.412  58.980  53.936  0.00  0.00    +0.000 A 
ATOM      8  O   UNL     1      37.154  59.303  52.788  0.00  0.00    +0.000 OA
ATOM      9  C   UNL     1      36.775  57.850  54.628  0.00  0.00    +0.000 A 
BRANCH   6  10
ATOM     10  O   UNL     1      35.081  60.904  53.557  0.00  0.00    +0.000 OA
ATOM     11  C   UNL     1      35.359  62.203  54.003  0.00  0.00    +0.000 C 
ENDBRANCH   6  10
ENDBRANCH   2   3
BRANCH   1  14
ATOM     12  C   UNL     1      38.050  53.580  59.783  0.00  0.00    +0.000 A 
ATOM     13  C   UNL     1      37.652  54.722  59.132  0.00  0.00    +0.000 A 
ATOM     14  C   UNL     1      36.501  54.795  58.382  0.00  0.00    +0.000 A 
ATOM     15  C   UNL     1      35.723  53.660  58.291  0.00  0.00    +0.000 A 
ATOM     16  C   UNL     1      36.078  52.476  58.929  0.00  0.00    +0.000 A 
ATOM     17  C   UNL     1      37.241  52.458  59.667  0.00  0.00    +0.000 A 
BRANCH  12  19
ATOM     18  C   UNL     1      40.489  53.816  59.981  0.00  0.00    +0.000 C 
ATOM     19  O   UNL     1      39.224  53.589  60.520  0.00  0.00    +0.000 OA
ENDBRANCH  12  19
BRANCH  16  20
ATOM     20  O   UNL     1      35.296  51.334  58.838  0.00  0.00    +0.000 OA
ATOM     21  C   UNL     1      34.994  50.631  60.029  0.00  0.00    +0.000 C 
ENDBRANCH  16  20
ENDBRANCH   1  14
TORSDOF 5
ENDMDL
MODEL 2
REMARK VINA RESULT:      -6.2      0.140      2.692
REMARK  Name = 
REMARK  5 active torsions:
REMARK  status: ('A' for Active; 'I' for Inactive)
REMARK    1  A    between atoms: O_2  and  C_3
REMARK    2  A    between atoms: C_5  and  C_6
REMARK    3  A    between atoms: C_7  and  C_8
REMARK    4  A    between atoms: C_11  and  O_12
REMARK    5  A    between atoms: C_18  and  O_19
REMARK                            x       y       z     vdW  Elec       q    Type
REMARK                         _______ _______ _______ _____ _____    ______ ____
ROOT
ATOM      1  C   UNL     1      36.175  56.133  57.747  0.00  0.00    +0.000 C 
ATOM      2  C   UNL     1      36.349  56.309  56.465  0.00  0.00    +0.000 C 
ENDROOT
BRANCH   2   3
ATOM      3  C   UNL     1      35.989  57.533  55.749  0.00  0.00    +0.000 A 
ATOM      4  C   UNL     1      34.949  58.341  56.127  0.00  0.00    +0.000 A 
ATOM      5  C   UNL     1      34.650  59.468  55.435  0.00  0.00    +0.000 A 
ATOM      6  C   UNL     1      35.381  59.833  54.332  0.00  0.00    +0.000 A 
ATOM      7  C   UNL     1      36.412  59.023  53.968  0.00  0.00    +0.000 A 
ATOM      8  O   UNL     1      37.193  59.350  52.847  0.00  0.00    +0.000 OA
ATOM      9  C   UNL     1      36.735  57.876  54.652  0.00  0.00    +0.000 A 
BRANCH   6  10
ATOM     10  O   UNL     1      35.125  60.974  53.581  0.00  0.00    +0.000 OA
ATOM     11  C   UNL     1      35.352  62.265  54.080  0.00  0.00    +0.000 C 
ENDBRANCH   6  10
ENDBRANCH   2   3
BRANCH   1  14
ATOM     12  C   UNL     1      36.172  52.563  58.957  0.00  0.00    +0.000 A 
ATOM     13  C   UNL     1      35.823  53.727  58.317  0.00  0.00    +0.000 A 
ATOM     14  C   UNL     1      36.548  54.891  58.431  0.00  0.00    +0.000 A 
ATOM     15  C   UNL     1      37.673  54.869  59.228  0.00  0.00    +0.000 A 
ATOM     16  C   UNL     1      38.073  53.718  59.900  0.00  0.00    +0.000 A 
ATOM     17  C   UNL     1      37.310  52.581  59.751  0.00  0.00    +0.000 A 
BRANCH  12  19
ATOM     18  C   UNL     1      34.767  50.744  59.831  0.00  0.00    +0.000 C 
ATOM     19  O   UNL     1      35.389  51.431  58.790  0.00  0.00    +0.000 OA
ENDBRANCH  12  19
BRANCH  16  20
ATOM     20  O   UNL     1      39.204  53.695  60.703  0.00  0.00    +0.000 OA
ATOM     21  C   UNL     1      40.468  53.856  60.085  0.00  0.00    +0.000 C 
ENDBRANCH  16  20
ENDBRANCH   1  14
TORSDOF 5
ENDMDL
MODEL 3
REMARK VINA RESULT:      -6.2     12.501     13.798
REMARK  Name = 
REMARK  5 active torsions:
REMARK  status: ('A' for Active; 'I' for Inactive)
REMARK    1  A    between atoms: O_2  and  C_3
REMARK    2  A    between atoms: C_5  and  C_6
REMARK    3  A    between atoms: C_7  and  C_8
REMARK    4  A    between atoms: C_11  and  O_12
REMARK    5  A    between atoms: C_18  and  O_19
REMARK                            x       y       z     vdW  Elec       q    Type
REMARK                         _______ _______ _______ _____ _____    ______ ____
ROOT
ATOM      1  C   UNL     1      30.819  44.764  62.006  0.00  0.00    +0.000 C 
ATOM      2  C   UNL     1      30.517  46.024  62.177  0.00  0.00    +0.000 C 
ENDROOT
BRANCH   2   3
ATOM      3  C   UNL     1      29.224  46.497  62.669  0.00  0.00    +0.000 A 
ATOM      4  C   UNL     1      28.586  45.943  63.747  0.00  0.00    +0.000 A 
ATOM      5  C   UNL     1      27.387  46.413  64.171  0.00  0.00    +0.000 A 
ATOM      6  C   UNL     1      26.775  47.461  63.529  0.00  0.00    +0.000 A 
ATOM      7  C   UNL     1      27.419  48.004  62.460  0.00  0.00    +0.000 A 
ATOM      8  O   UNL     1      26.836  49.078  61.768  0.00  0.00    +0.000 OA
ATOM      9  C   UNL     1      28.633  47.545  62.012  0.00  0.00    +0.000 A 
BRANCH   6  10
ATOM     10  O   UNL     1      25.547  47.988  63.913  0.00  0.00    +0.000 OA
ATOM     11  C   UNL     1      25.365  48.646  65.138  0.00  0.00    +0.000 C 
ENDBRANCH   6  10
ENDBRANCH   2   3
BRANCH   1  14
ATOM     12  C   UNL     1      34.520  44.096  61.754  0.00  0.00    +0.000 A 
ATOM     13  C   UNL     1      33.294  44.506  62.217  0.00  0.00    +0.000 A 
ATOM     14  C   UNL     1      32.127  44.327  61.510  0.00  0.00    +0.000 A 
ATOM     15  C   UNL     1      32.212  43.706  60.281  0.00  0.00    +0.000 A 
ATOM     16  C   UNL     1      33.428  43.272  59.763  0.00  0.00    +0.000 A 
ATOM     17  C   UNL     1      34.565  43.476  60.513  0.00  0.00    +0.000 A 
BRANCH  12  19
ATOM     18  C   UNL     1      36.377  45.500  62.542  0.00  0.00    +0.000 C 
ATOM     19  O   UNL     1      35.650  44.312  62.529  0.00  0.00    +0.000 OA
ENDBRANCH  12  19
BRANCH  16  20
ATOM     20  O   UNL     1      33.515  42.647  58.527  0.00  0.00    +0.000 OA
ATOM     21  C   UNL     1      34.241  43.294  57.498  0.00  0.00    +0.000 C 
ENDBRANCH  16  20
ENDBRANCH   1  14
TORSDOF 5
ENDMDL
MODEL 4
REMARK VINA RESULT:      -6.0      2.070      8.336
REMARK  Name = 
REMARK  5 active torsions:
REMARK  status: ('A' for Active; 'I' for Inactive)
REMARK    1  A    between atoms: O_2  and  C_3
REMARK    2  A    between atoms: C_5  and  C_6
REMARK    3  A    between atoms: C_7  and  C_8
REMARK    4  A    between atoms: C_11  and  O_12
REMARK    5  A    between atoms: C_18  and  O_19
REMARK                            x       y       z     vdW  Elec       q    Type
REMARK                         _______ _______ _______ _____ _____    ______ ____
ROOT
ATOM      1  C   UNL     1      34.961  57.401  58.012  0.00  0.00    +0.000 C 
ATOM      2  C   UNL     1      35.767  56.374  57.958  0.00  0.00    +0.000 C 
ENDROOT
BRANCH   2   3
ATOM      3  C   UNL     1      36.117  55.547  59.112  0.00  0.00    +0.000 A 
ATOM      4  C   UNL     1      37.348  55.583  59.712  0.00  0.00    +0.000 A 
ATOM      5  C   UNL     1      37.631  54.798  60.781  0.00  0.00    +0.000 A 
ATOM      6  C   UNL     1      36.689  53.942  61.295  0.00  0.00    +0.000 A 
ATOM      7  C   UNL     1      35.470  53.916  60.691  0.00  0.00    +0.000 A 
ATOM      8  O   UNL     1      34.471  53.058  61.177  0.00  0.00    +0.000 OA
ATOM      9  C   UNL     1      35.159  54.700  59.607  0.00  0.00    +0.000 A 
BRANCH   6  10
ATOM     10  O   UNL     1      36.917  53.112  62.387  0.00  0.00    +0.000 OA
ATOM     11  C   UNL     1      37.998  52.221  62.437  0.00  0.00    +0.000 C 
ENDBRANCH   6  10
ENDBRANCH   2   3
BRANCH   1  14
ATOM     12  C   UNL     1      34.993  58.846  54.530  0.00  0.00    +0.000 A 
ATOM     13  C   UNL     1      35.299  58.090  55.635  0.00  0.00    +0.000 A 
ATOM     14  C   UNL     1      34.633  58.209  56.833  0.00  0.00    +0.000 A 
ATOM     15  C   UNL     1      33.614  59.135  56.909  0.00  0.00    +0.000 A 
ATOM     16  C   UNL     1      33.261  59.928  55.821  0.00  0.00    +0.000 A 
ATOM     17  C   UNL     1      33.961  59.767  54.646  0.00  0.00    +0.000 A 
BRANCH  12  19
ATOM     18  C   UNL     1      36.995  59.160  53.139  0.00  0.00    +0.000 C 
ATOM     19  O   UNL     1      35.712  58.664  53.358  0.00  0.00    +0.000 OA
ENDBRANCH  12  19
BRANCH  16  20
ATOM     20  O   UNL     1      32.236  60.859  55.897  0.00  0.00    +0.000 OA
ATOM     21  C   UNL     1      30.906  60.386  55.997  0.00  0.00    +0.000 C 
ENDBRANCH  16  20
ENDBRANCH   1  14
TORSDOF 5
ENDMDL
MODEL 5
REMARK VINA RESULT:      -6.0      1.909      8.486
REMARK  Name = 
REMARK  5 active torsions:
REMARK  status: ('A' for Active; 'I' for Inactive)
REMARK    1  A    between atoms: O_2  and  C_3
REMARK    2  A    between atoms: C_5  and  C_6
REMARK    3  A    between atoms: C_7  and  C_8
REMARK    4  A    between atoms: C_11  and  O_12
REMARK    5  A    between atoms: C_18  and  O_19
REMARK                            x       y       z     vdW  Elec       q    Type
REMARK                         _______ _______ _______ _____ _____    ______ ____
ROOT
ATOM      1  C   UNL     1      35.365  57.198  57.837  0.00  0.00    +0.000 C 
ATOM      2  C   UNL     1      35.877  56.012  57.642  0.00  0.00    +0.000 C 
ENDROOT
BRANCH   2   3
ATOM      3  C   UNL     1      36.345  55.135  58.715  0.00  0.00    +0.000 A 
ATOM      4  C   UNL     1      37.666  54.827  58.906  0.00  0.00    +0.000 A 
ATOM      5  C   UNL     1      38.057  54.009  59.915  0.00  0.00    +0.000 A 
ATOM      6  C   UNL     1      37.137  53.464  60.776  0.00  0.00    +0.000 A 
ATOM      7  C   UNL     1      35.829  53.779  60.576  0.00  0.00    +0.000 A 
ATOM      8  O   UNL     1      34.847  53.248  61.429  0.00  0.00    +0.000 OA
ATOM      9  C   UNL     1      35.407  54.604  59.563  0.00  0.00    +0.000 A 
BRANCH   6  10
ATOM     10  O   UNL     1      37.473  52.620  61.828  0.00  0.00    +0.000 OA
ATOM     11  C   UNL     1      38.067  53.092  63.007  0.00  0.00    +0.000 C 
ENDBRANCH   6  10
ENDBRANCH   2   3
BRANCH   1  14
ATOM     12  C   UNL     1      33.432  59.736  55.829  0.00  0.00    +0.000 A 
ATOM     13  C   UNL     1      33.862  58.937  56.860  0.00  0.00    +0.000 A 
ATOM     14  C   UNL     1      34.906  58.050  56.736  0.00  0.00    +0.000 A 
ATOM     15  C   UNL     1      35.538  57.973  55.512  0.00  0.00    +0.000 A 
ATOM     16  C   UNL     1      35.143  58.758  54.433  0.00  0.00    +0.000 A 
ATOM     17  C   UNL     1      34.092  59.629  54.614  0.00  0.00    +0.000 A 
BRANCH  12  19
ATOM     18  C   UNL     1      31.150  60.529  55.371  0.00  0.00    +0.000 C 
ATOM     19  O   UNL     1      32.371  60.606  56.037  0.00  0.00    +0.000 OA
ENDBRANCH  12  19
BRANCH  16  20
ATOM     20  O   UNL     1      35.778  58.681  53.202  0.00  0.00    +0.000 OA
ATOM     21  C   UNL     1      37.103  59.168  53.099  0.00  0.00    +0.000 C 
ENDBRANCH  16  20
ENDBRANCH   1  14
TORSDOF 5
ENDMDL
MODEL 6
REMARK VINA RESULT:      -6.0      1.605      2.890
REMARK  Name = 
REMARK  5 active torsions:
REMARK  status: ('A' for Active; 'I' for Inactive)
REMARK    1  A    between atoms: O_2  and  C_3
REMARK    2  A    between atoms: C_5  and  C_6
REMARK    3  A    between atoms: C_7  and  C_8
REMARK    4  A    between atoms: C_11  and  O_12
REMARK    5  A    between atoms: C_18  and  O_19
REMARK                            x       y       z     vdW  Elec       q    Type
REMARK                         _______ _______ _______ _____ _____    ______ ____
ROOT
ATOM      1  C   UNL     1      35.909  55.930  58.252  0.00  0.00    +0.000 C 
ATOM      2  C   UNL     1      36.358  56.135  57.043  0.00  0.00    +0.000 C 
ENDROOT
BRANCH   2   3
ATOM      3  C   UNL     1      35.948  57.255  56.195  0.00  0.00    +0.000 A 
ATOM      4  C   UNL     1      36.430  57.448  54.928  0.00  0.00    +0.000 A 
ATOM      5  C   UNL     1      36.023  58.500  54.176  0.00  0.00    +0.000 A 
ATOM      6  C   UNL     1      35.113  59.405  54.664  0.00  0.00    +0.000 A 
ATOM      7  C   UNL     1      34.642  59.201  55.924  0.00  0.00    +0.000 A 
ATOM      8  O   UNL     1      33.709  60.098  56.472  0.00  0.00    +0.000 OA
ATOM      9  C   UNL     1      35.039  58.144  56.706  0.00  0.00    +0.000 A 
BRANCH   6  10
ATOM     10  O   UNL     1      34.656  60.503  53.944  0.00  0.00    +0.000 OA
ATOM     11  C   UNL     1      35.440  61.650  53.751  0.00  0.00    +0.000 C 
ENDBRANCH   6  10
ENDBRANCH   2   3
BRANCH   1  14
ATOM     12  C   UNL     1      36.038  53.281  60.931  0.00  0.00    +0.000 A 
ATOM     13  C   UNL     1      35.633  54.344  60.162  0.00  0.00    +0.000 A 
ATOM     14  C   UNL     1      36.343  54.795  59.073  0.00  0.00    +0.000 A 
ATOM     15  C   UNL     1      37.512  54.137  58.754  0.00  0.00    +0.000 A 
ATOM     16  C   UNL     1      37.971  53.055  59.499  0.00  0.00    +0.000 A 
ATOM     17  C   UNL     1      37.221  52.645  60.579  0.00  0.00    +0.000 A 
BRANCH  12  19
ATOM     18  C   UNL     1      35.369  51.650  62.645  0.00  0.00    +0.000 C 
ATOM     19  O   UNL     1      35.265  52.887  62.013  0.00  0.00    +0.000 OA
ENDBRANCH  12  19
BRANCH  16  20
ATOM     20  O   UNL     1      39.147  52.393  59.179  0.00  0.00    +0.000 OA
ATOM     21  C   UNL     1      39.794  52.724  57.965  0.00  0.00    +0.000 C 
ENDBRANCH  16  20
ENDBRANCH   1  14
TORSDOF 5
ENDMDL
MODEL 7
REMARK VINA RESULT:      -6.0      2.218      8.151
REMARK  Name = 
REMARK  5 active torsions:
REMARK  status: ('A' for Active; 'I' for Inactive)
REMARK    1  A    between atoms: O_2  and  C_3
REMARK    2  A    between atoms: C_5  and  C_6
REMARK    3  A    between atoms: C_7  and  C_8
REMARK    4  A    between atoms: C_11  and  O_12
REMARK    5  A    between atoms: C_18  and  O_19
REMARK                            x       y       z     vdW  Elec       q    Type
REMARK                         _______ _______ _______ _____ _____    ______ ____
ROOT
ATOM      1  C   UNL     1      34.827  57.752  57.975  0.00  0.00    +0.000 C 
ATOM      2  C   UNL     1      35.812  56.937  57.708  0.00  0.00    +0.000 C 
ENDROOT
BRANCH   2   3
ATOM      3  C   UNL     1      36.479  56.103  58.708  0.00  0.00    +0.000 A 
ATOM      4  C   UNL     1      36.867  56.573  59.934  0.00  0.00    +0.000 A 
ATOM      5  C   UNL     1      37.483  55.764  60.832  0.00  0.00    +0.000 A 
ATOM      6  C   UNL     1      37.735  54.447  60.537  0.00  0.00    +0.000 A 
ATOM      7  C   UNL     1      37.343  53.993  59.316  0.00  0.00    +0.000 A 
ATOM      8  O   UNL     1      37.578  52.653  58.964  0.00  0.00    +0.000 OA
ATOM      9  C   UNL     1      36.719  54.791  58.390  0.00  0.00    +0.000 A 
BRANCH   6  10
ATOM     10  O   UNL     1      38.362  53.568  61.413  0.00  0.00    +0.000 OA
ATOM     11  C   UNL     1      37.707  53.030  62.529  0.00  0.00    +0.000 C 
ENDBRANCH   6  10
ENDBRANCH   2   3
BRANCH   1  14
ATOM     12  C   UNL     1      34.081  59.478  54.708  0.00  0.00    +0.000 A 
ATOM     13  C   UNL     1      34.684  58.708  55.672  0.00  0.00    +0.000 A 
ATOM     14  C   UNL     1      34.182  58.574  56.946  0.00  0.00    +0.000 A 
ATOM     15  C   UNL     1      33.019  59.251  57.251  0.00  0.00    +0.000 A 
ATOM     16  C   UNL     1      32.367  60.045  56.313  0.00  0.00    +0.000 A 
ATOM     17  C   UNL     1      32.913  60.144  55.052  0.00  0.00    +0.000 A 
BRANCH  12  19
ATOM     18  C   UNL     1      35.746  58.808  53.027  0.00  0.00    +0.000 C 
ATOM     19  O   UNL     1      34.650  59.560  53.446  0.00  0.00    +0.000 OA
ENDBRANCH  12  19
BRANCH  16  20
ATOM     20  O   UNL     1      31.198  60.726  56.618  0.00  0.00    +0.000 OA
ATOM     21  C   UNL     1      30.066  59.973  57.011  0.00  0.00    +0.000 C 
ENDBRANCH  16  20
ENDBRANCH   1  14
TORSDOF 5
ENDMDL
MODEL 8
REMARK VINA RESULT:      -5.8      1.927      8.401
REMARK  Name = 
REMARK  5 active torsions:
REMARK  status: ('A' for Active; 'I' for Inactive)
REMARK    1  A    between atoms: O_2  and  C_3
REMARK    2  A    between atoms: C_5  and  C_6
REMARK    3  A    between atoms: C_7  and  C_8
REMARK    4  A    between atoms: C_11  and  O_12
REMARK    5  A    between atoms: C_18  and  O_19
REMARK                            x       y       z     vdW  Elec       q    Type
REMARK                         _______ _______ _______ _____ _____    ______ ____
ROOT
ATOM      1  C   UNL     1      35.756  56.921  58.060  0.00  0.00    +0.000 C 
ATOM      2  C   UNL     1      36.264  55.729  57.894  0.00  0.00    +0.000 C 
ENDROOT
BRANCH   2   3
ATOM      3  C   UNL     1      36.747  54.885  58.987  0.00  0.00    +0.000 A 
ATOM      4  C   UNL     1      36.242  54.948  60.258  0.00  0.00    +0.000 A 
ATOM      5  C   UNL     1      36.718  54.146  61.243  0.00  0.00    +0.000 A 
ATOM      6  C   UNL     1      37.724  53.245  60.993  0.00  0.00    +0.000 A 
ATOM      7  C   UNL     1      38.216  53.192  59.725  0.00  0.00    +0.000 A 
ATOM      8  O   UNL     1      39.245  52.288  59.416  0.00  0.00    +0.000 OA
ATOM      9  C   UNL     1      37.751  53.993  58.711  0.00  0.00    +0.000 A 
BRANCH   6  10
ATOM     10  O   UNL     1      38.255  52.397  61.957  0.00  0.00    +0.000 OA
ATOM     11  C   UNL     1      37.599  51.229  62.370  0.00  0.00    +0.000 C 
ENDBRANCH   6  10
ENDBRANCH   2   3
BRANCH   1  14
ATOM     12  C   UNL     1      33.764  59.361  55.989  0.00  0.00    +0.000 A 
ATOM     13  C   UNL     1      34.208  58.594  57.038  0.00  0.00    +0.000 A 
ATOM     14  C   UNL     1      35.283  57.740  56.939  0.00  0.00    +0.000 A 
ATOM     15  C   UNL     1      35.930  57.663  55.724  0.00  0.00    +0.000 A 
ATOM     16  C   UNL     1      35.522  58.417  54.628  0.00  0.00    +0.000 A 
ATOM     17  C   UNL     1      34.441  59.256  54.782  0.00  0.00    +0.000 A 
BRANCH  12  19
ATOM     18  C   UNL     1      31.693  60.432  55.209  0.00  0.00    +0.000 C 
ATOM     19  O   UNL     1      32.674  60.199  56.171  0.00  0.00    +0.000 OA
ENDBRANCH  12  19
BRANCH  16  20
ATOM     20  O   UNL     1      36.173  58.341  53.405  0.00  0.00    +0.000 OA
ATOM     21  C   UNL     1      36.950  59.448  52.989  0.00  0.00    +0.000 C 
ENDBRANCH  16  20
ENDBRANCH   1  14
TORSDOF 5
ENDMDL
MODEL 9
REMARK VINA RESULT:      -5.8      1.380      3.107
REMARK  Name = 
REMARK  5 active torsions:
REMARK  status: ('A' for Active; 'I' for Inactive)
REMARK    1  A    between atoms: O_2  and  C_3
REMARK    2  A    between atoms: C_5  and  C_6
REMARK    3  A    between atoms: C_7  and  C_8
REMARK    4  A    between atoms: C_11  and  O_12
REMARK    5  A    between atoms: C_18  and  O_19
REMARK                            x       y       z     vdW  Elec       q    Type
REMARK                         _______ _______ _______ _____ _____    ______ ____
ROOT
ATOM      1  C   UNL     1      35.927  54.550  58.184  0.00  0.00    +0.000 C 
ATOM      2  C   UNL     1      36.569  55.631  57.828  0.00  0.00    +0.000 C 
ENDROOT
BRANCH   2   3
ATOM      3  C   UNL     1      35.958  56.746  57.105  0.00  0.00    +0.000 A 
ATOM      4  C   UNL     1      35.031  57.583  57.667  0.00  0.00    +0.000 A 
ATOM      5  C   UNL     1      34.490  58.606  56.961  0.00  0.00    +0.000 A 
ATOM      6  C   UNL     1      34.856  58.833  55.658  0.00  0.00    +0.000 A 
ATOM      7  C   UNL     1      35.778  57.995  55.111  0.00  0.00    +0.000 A 
ATOM      8  O   UNL     1      36.187  58.183  53.780  0.00  0.00    +0.000 OA
ATOM      9  C   UNL     1      36.341  56.952  55.805  0.00  0.00    +0.000 A 
BRANCH   6  10
ATOM     10  O   UNL     1      34.338  59.863  54.881  0.00  0.00    +0.000 OA
ATOM     11  C   UNL     1      32.992  60.248  54.949  0.00  0.00    +0.000 C 
ENDBRANCH   6  10
ENDBRANCH   2   3
BRANCH   1  14
ATOM     12  C   UNL     1      36.498  51.301  60.009  0.00  0.00    +0.000 A 
ATOM     13  C   UNL     1      35.894  52.331  59.331  0.00  0.00    +0.000 A 
ATOM     14  C   UNL     1      36.573  53.451  58.909  0.00  0.00    +0.000 A 
ATOM     15  C   UNL     1      37.921  53.525  59.189  0.00  0.00    +0.000 A 
ATOM     16  C   UNL     1      38.584  52.512  59.873  0.00  0.00    +0.000 A 
ATOM     17  C   UNL     1      37.856  51.413  60.273  0.00  0.00    +0.000 A 
BRANCH  12  19
ATOM     18  C   UNL     1      36.160  49.254  61.328  0.00  0.00    +0.000 C 
ATOM     19  O   UNL     1      35.743  50.205  60.399  0.00  0.00    +0.000 OA
ENDBRANCH  12  19
BRANCH  16  20
ATOM     20  O   UNL     1      39.940  52.586  60.156  0.00  0.00    +0.000 OA
ATOM     21  C   UNL     1      40.646  53.746  59.757  0.00  0.00    +0.000 C 
ENDBRANCH  16  20
ENDBRANCH   1  14
TORSDOF 5
ENDMDL
MODEL 10
REMARK VINA RESULT:      -5.8     12.785     14.114
REMARK  Name = 
REMARK  5 active torsions:
REMARK  status: ('A' for Active; 'I' for Inactive)
REMARK    1  A    between atoms: O_2  and  C_3
REMARK    2  A    between atoms: C_5  and  C_6
REMARK    3  A    between atoms: C_7  and  C_8
REMARK    4  A    between atoms: C_11  and  O_12
REMARK    5  A    between atoms: C_18  and  O_19
REMARK                            x       y       z     vdW  Elec       q    Type
REMARK                         _______ _______ _______ _____ _____    ______ ____
ROOT
ATOM      1  C   UNL     1      30.803  44.649  61.716  0.00  0.00    +0.000 C 
ATOM      2  C   UNL     1      30.645  45.816  62.282  0.00  0.00    +0.000 C 
ENDROOT
BRANCH   2   3
ATOM      3  C   UNL     1      29.348  46.374  62.662  0.00  0.00    +0.000 A 
ATOM      4  C   UNL     1      28.582  45.861  63.675  0.00  0.00    +0.000 A 
ATOM      5  C   UNL     1      27.384  46.409  63.996  0.00  0.00    +0.000 A 
ATOM      6  C   UNL     1      26.902  47.497  63.311  0.00  0.00    +0.000 A 
ATOM      7  C   UNL     1      27.672  47.997  62.307  0.00  0.00    +0.000 A 
ATOM      8  O   UNL     1      27.225  49.110  61.575  0.00  0.00    +0.000 OA
ATOM      9  C   UNL     1      28.888  47.460  61.964  0.00  0.00    +0.000 A 
BRANCH   6  10
ATOM     10  O   UNL     1      25.682  48.104  63.590  0.00  0.00    +0.000 OA
ATOM     11  C   UNL     1      25.280  48.407  64.898  0.00  0.00    +0.000 C 
ENDBRANCH   6  10
ENDBRANCH   2   3
BRANCH   1  14
ATOM     12  C   UNL     1      33.528  42.614  60.089  0.00  0.00    +0.000 A 
ATOM     13  C   UNL     1      32.294  43.108  60.434  0.00  0.00    +0.000 A 
ATOM     14  C   UNL     1      32.121  44.123  61.348  0.00  0.00    +0.000 A 
ATOM     15  C   UNL     1      33.250  44.656  61.933  0.00  0.00    +0.000 A 
ATOM     16  C   UNL     1      34.525  44.193  61.622  0.00  0.00    +0.000 A 
ATOM     17  C   UNL     1      34.640  43.176  60.700  0.00  0.00    +0.000 A 
BRANCH  12  19
ATOM     18  C   UNL     1      32.627  41.288  58.225  0.00  0.00    +0.000 C 
ATOM     19  O   UNL     1      33.617  41.590  59.158  0.00  0.00    +0.000 OA
ENDBRANCH  12  19
BRANCH  16  20
ATOM     20  O   UNL     1      35.661  44.729  62.210  0.00  0.00    +0.000 OA
ATOM     21  C   UNL     1      36.054  44.239  63.479  0.00  0.00    +0.000 C 
ENDBRANCH  16  20
ENDBRANCH   1  14
TORSDOF 5
ENDMDL
