REMARK  Name = 
REMARK  7 active torsions:
REMARK  status: ('A' for Active; 'I' for Inactive)
REMARK    1  A    between atoms: O_2  and  C_3
REMARK    2  A    between atoms: C_6  and  C_7
REMARK    3  A    between atoms: C_7  and  C_8
REMARK    4  A    between atoms: C_10  and  C_11
REMARK    5  A    between atoms: C_13  and  O_14
REMARK    6  A    between atoms: C_16  and  O_17
REMARK    7  A    between atoms: C_19  and  O_20
REMARK                            x       y       z     vdW  Elec       q    Type
REMARK                         _______ _______ _______ _____ _____    ______ ____
ROOT
ATOM      1  C   UNL     1       1.127  -0.039  -0.676  0.00  0.00    +0.000 C 
ATOM      2  C   UNL     1       0.378   0.088   0.372  0.00  0.00    +0.000 C 
ENDROOT
BRANCH   1   6
ATOM      3  C   UNL     1       5.340  -0.108  -0.110  0.00  0.00    +0.000 A 
ATOM      4  C   UNL     1       4.486   0.111   0.980  0.00  0.00    +0.000 A 
ATOM      5  C   UNL     1       3.139   0.127   0.702  0.00  0.00    +0.000 A 
ATOM      6  C   UNL     1       2.603  -0.054  -0.530  0.00  0.00    +0.000 A 
ATOM      7  C   UNL     1       3.433  -0.266  -1.586  0.00  0.00    +0.000 A 
ATOM      8  C   UNL     1       4.822  -0.293  -1.370  0.00  0.00    +0.000 A 
BRANCH   3  10
ATOM      9  C   UNL     1       7.608  -0.341  -0.854  0.00  0.00    +0.000 C 
ATOM     10  O   UNL     1       6.691  -0.121   0.193  0.00  0.00    +0.000 OA
ENDBRANCH   3  10
ENDBRANCH   1   6
BRANCH   2  11
ATOM     11  C   UNL     1      -1.068   0.116   0.355  0.00  0.00    +0.000 A 
ATOM     12  C   UNL     1      -1.714  -0.628   1.349  0.00  0.00    +0.000 A 
ATOM     13  C   UNL     1      -3.086  -0.690   1.472  0.00  0.00    +0.000 A 
ATOM     14  C   UNL     1      -3.877   0.016   0.572  0.00  0.00    +0.000 A 
ATOM     15  C   UNL     1      -3.264   0.755  -0.414  0.00  0.00    +0.000 A 
ATOM     16  C   UNL     1      -1.865   0.802  -0.519  0.00  0.00    +0.000 A 
BRANCH  13  17
ATOM     17  O   UNL     1      -3.668  -1.448   2.482  0.00  0.00    +0.000 OA
ATOM     18  C   UNL     1      -2.826  -2.148   3.369  0.00  0.00    +0.000 C 
ENDBRANCH  13  17
BRANCH  14  19
ATOM     19  O   UNL     1      -5.265  -0.042   0.690  0.00  0.00    +0.000 OA
ATOM     20  C   UNL     1      -5.936   0.919   1.511  0.00  0.00    +0.000 C 
ENDBRANCH  14  19
BRANCH  15  21
ATOM     21  O   UNL     1      -4.070   1.446  -1.292  0.00  0.00    +0.000 OA
ATOM     22  C   UNL     1      -3.526   2.219  -2.319  0.00  0.00    +0.000 C 
ENDBRANCH  15  21
ENDBRANCH   2  11
BRANCH   1  23
ATOM     23  C   UNL     1       0.513  -0.163  -1.967  0.00  0.00    +0.000 C 
ATOM     24  N   UNL     1       0.025  -0.259  -3.010  0.00  0.00    +0.000 NA
ENDBRANCH   1  23
TORSDOF 7
