REMARK  Name = 
REMARK  3 active torsions:
REMARK  status: ('A' for Active; 'I' for Inactive)
REMARK    1  A    between atoms: O_2  and  C_3
REMARK    2  A    between atoms: C_8  and  C_9
REMARK    3  A    between atoms: C_10  and  C_11
REMARK                            x       y       z     vdW  Elec       q    Type
REMARK                         _______ _______ _______ _____ _____    ______ ____
ROOT
ATOM      1  C   UNL     1      -3.741   0.858  -0.488  0.00  0.00    +0.000 A 
ATOM      2  C   UNL     1      -4.169  -0.194   0.291  0.00  0.00    +0.000 A 
ATOM      3  C   UNL     1      -3.295  -1.091   0.889  0.00  0.00    +0.000 A 
ATOM      4  O   UNL     1      -3.771  -2.147   1.674  0.00  0.00    +0.000 OA
ATOM      5  C   UNL     1      -1.942  -0.896   0.678  0.00  0.00    +0.000 A 
ATOM      6  C   UNL     1      -1.466   0.144  -0.095  0.00  0.00    +0.000 A 
ATOM      7  C   UNL     1      -2.377   1.004  -0.665  0.00  0.00    +0.000 A 
ENDROOT
BRANCH   1   9
ATOM      8  C   UNL     1      -4.149   2.804  -1.866  0.00  0.00    +0.000 C 
ATOM      9  O   UNL     1      -4.653   1.746  -1.079  0.00  0.00    +0.000 OA
ENDBRANCH   1   9
BRANCH   6  10
ATOM     10  C   UNL     1      -0.011   0.323  -0.300  0.00  0.00    +0.000 C 
ATOM     11  C   UNL     1       0.870  -0.472   0.225  0.00  0.00    +0.000 C 
BRANCH  11  12
ATOM     12  C   UNL     1       2.308  -0.368   0.075  0.00  0.00    +0.000 A 
ATOM     13  C   UNL     1       2.929   0.615  -0.664  0.00  0.00    +0.000 A 
ATOM     14  C   UNL     1       4.302   0.676  -0.781  0.00  0.00    +0.000 A 
ATOM     15  C   UNL     1       5.097  -0.264  -0.147  0.00  0.00    +0.000 A 
ATOM     16  O   UNL     1       6.491  -0.191  -0.273  0.00  0.00    +0.000 OA
ATOM     17  C   UNL     1       4.477  -1.248   0.594  0.00  0.00    +0.000 A 
ATOM     18  C   UNL     1       3.102  -1.300   0.703  0.00  0.00    +0.000 A 
ENDBRANCH  11  12
ENDBRANCH   6  10
TORSDOF 3
