MODEL 1
REMARK VINA RESULT:      -6.1      0.000      0.000
REMARK  Name = 
REMARK  6 active torsions:
REMARK  status: ('A' for Active; 'I' for Inactive)
REMARK    1  A    between atoms: O_2  and  C_3
REMARK    2  A    between atoms: C_5  and  C_6
REMARK    3  A    between atoms: C_7  and  C_8
REMARK    4  A    between atoms: C_11  and  O_12
REMARK    5  A    between atoms: C_15  and  O_16
REMARK    6  A    between atoms: C_19  and  O_20
REMARK                            x       y       z     vdW  Elec       q    Type
REMARK                         _______ _______ _______ _____ _____    ______ ____
ROOT
ATOM      1  C   UNL     1      36.519  56.323  57.400  0.00  0.00    +0.000 C 
ATOM      2  C   UNL     1      35.955  55.390  58.158  0.00  0.00    +0.000 C 
ENDROOT
BRANCH   1   5
ATOM      3  C   UNL     1      33.868  58.927  56.992  0.00  0.00    +0.000 A 
ATOM      4  C   UNL     1      34.642  57.955  57.602  0.00  0.00    +0.000 A 
ATOM      5  C   UNL     1      35.651  57.358  56.845  0.00  0.00    +0.000 A 
ATOM      6  C   UNL     1      35.860  57.735  55.524  0.00  0.00    +0.000 A 
ATOM      7  C   UNL     1      35.083  58.705  54.926  0.00  0.00    +0.000 A 
ATOM      8  C   UNL     1      34.093  59.284  55.686  0.00  0.00    +0.000 A 
BRANCH   3  10
ATOM      9  C   UNL     1      31.672  60.010  57.019  0.00  0.00    +0.000 C 
ATOM     10  O   UNL     1      32.842  59.565  57.690  0.00  0.00    +0.000 OA
ENDBRANCH   3  10
BRANCH   7  11
ATOM     11  O   UNL     1      35.305  59.077  53.592  0.00  0.00    +0.000 OA
ATOM     12  C   UNL     1      36.587  58.950  53.018  0.00  0.00    +0.000 C 
ENDBRANCH   7  11
ENDBRANCH   1   5
BRANCH   2  13
ATOM     13  C   UNL     1      36.833  54.368  58.703  0.00  0.00    +0.000 A 
ATOM     14  C   UNL     1      38.042  54.633  59.303  0.00  0.00    +0.000 A 
ATOM     15  C   UNL     1      38.842  53.625  59.807  0.00  0.00    +0.000 A 
ATOM     16  C   UNL     1      38.417  52.331  59.704  0.00  0.00    +0.000 A 
ATOM     17  C   UNL     1      37.216  52.024  59.112  0.00  0.00    +0.000 A 
ATOM     18  C   UNL     1      36.431  53.054  58.613  0.00  0.00    +0.000 A 
BRANCH  16  19
ATOM     19  O   UNL     1      39.171  51.259  60.190  0.00  0.00    +0.000 OA
ATOM     20  C   UNL     1      38.858  49.913  59.886  0.00  0.00    +0.000 C 
ENDBRANCH  16  19
BRANCH  18  21
ATOM     21  O   UNL     1      35.239  52.743  58.026  0.00  0.00    +0.000 OA
ATOM     22  C   UNL     1      34.097  52.280  58.674  0.00  0.00    +0.000 C 
ENDBRANCH  18  21
ENDBRANCH   2  13
TORSDOF 6
ENDMDL
MODEL 2
REMARK VINA RESULT:      -6.0      1.425      8.147
REMARK  Name = 
REMARK  6 active torsions:
REMARK  status: ('A' for Active; 'I' for Inactive)
REMARK    1  A    between atoms: O_2  and  C_3
REMARK    2  A    between atoms: C_5  and  C_6
REMARK    3  A    between atoms: C_7  and  C_8
REMARK    4  A    between atoms: C_11  and  O_12
REMARK    5  A    between atoms: C_15  and  O_16
REMARK    6  A    between atoms: C_19  and  O_20
REMARK                            x       y       z     vdW  Elec       q    Type
REMARK                         _______ _______ _______ _____ _____    ______ ____
ROOT
ATOM      1  C   UNL     1      35.743  55.595  58.221  0.00  0.00    +0.000 C 
ATOM      2  C   UNL     1      36.142  56.369  57.218  0.00  0.00    +0.000 C 
ENDROOT
BRANCH   1   5
ATOM      3  C   UNL     1      38.684  53.397  58.926  0.00  0.00    +0.000 A 
ATOM      4  C   UNL     1      37.973  54.536  58.591  0.00  0.00    +0.000 A 
ATOM      5  C   UNL     1      36.580  54.448  58.562  0.00  0.00    +0.000 A 
ATOM      6  C   UNL     1      35.942  53.250  58.862  0.00  0.00    +0.000 A 
ATOM      7  C   UNL     1      36.661  52.121  59.194  0.00  0.00    +0.000 A 
ATOM      8  C   UNL     1      38.032  52.225  59.218  0.00  0.00    +0.000 A 
BRANCH   3  10
ATOM      9  C   UNL     1      40.847  52.607  58.093  0.00  0.00    +0.000 C 
ATOM     10  O   UNL     1      40.079  53.414  58.973  0.00  0.00    +0.000 OA
ENDBRANCH   3  10
BRANCH   7  11
ATOM     11  O   UNL     1      36.005  50.919  59.495  0.00  0.00    +0.000 OA
ATOM     12  C   UNL     1      34.596  50.857  59.510  0.00  0.00    +0.000 C 
ENDBRANCH   7  11
ENDBRANCH   1   5
BRANCH   2  13
ATOM     13  C   UNL     1      35.299  57.506  56.891  0.00  0.00    +0.000 A 
ATOM     14  C   UNL     1      34.358  58.036  57.742  0.00  0.00    +0.000 A 
ATOM     15  C   UNL     1      33.579  59.120  57.385  0.00  0.00    +0.000 A 
ATOM     16  C   UNL     1      33.751  59.677  56.150  0.00  0.00    +0.000 A 
ATOM     17  C   UNL     1      34.680  59.178  55.269  0.00  0.00    +0.000 A 
ATOM     18  C   UNL     1      35.449  58.088  55.653  0.00  0.00    +0.000 A 
BRANCH  16  19
ATOM     19  O   UNL     1      33.000  60.775  55.717  0.00  0.00    +0.000 OA
ATOM     20  C   UNL     1      31.790  60.629  54.999  0.00  0.00    +0.000 C 
ENDBRANCH  16  19
BRANCH  18  21
ATOM     21  O   UNL     1      36.370  57.596  54.774  0.00  0.00    +0.000 OA
ATOM     22  C   UNL     1      37.150  58.342  53.893  0.00  0.00    +0.000 C 
ENDBRANCH  18  21
ENDBRANCH   2  13
TORSDOF 6
ENDMDL
MODEL 3
REMARK VINA RESULT:      -6.0      0.263      2.644
REMARK  Name = 
REMARK  6 active torsions:
REMARK  status: ('A' for Active; 'I' for Inactive)
REMARK    1  A    between atoms: O_2  and  C_3
REMARK    2  A    between atoms: C_5  and  C_6
REMARK    3  A    between atoms: C_7  and  C_8
REMARK    4  A    between atoms: C_11  and  O_12
REMARK    5  A    between atoms: C_15  and  O_16
REMARK    6  A    between atoms: C_19  and  O_20
REMARK                            x       y       z     vdW  Elec       q    Type
REMARK                         _______ _______ _______ _____ _____    ______ ____
ROOT
ATOM      1  C   UNL     1      36.471  56.506  57.729  0.00  0.00    +0.000 C 
ATOM      2  C   UNL     1      35.971  55.298  57.963  0.00  0.00    +0.000 C 
ENDROOT
BRANCH   1   5
ATOM      3  C   UNL     1      34.961  58.724  55.126  0.00  0.00    +0.000 A 
ATOM      4  C   UNL     1      35.820  57.802  55.699  0.00  0.00    +0.000 A 
ATOM      5  C   UNL     1      35.617  57.468  57.039  0.00  0.00    +0.000 A 
ATOM      6  C   UNL     1      34.583  58.050  57.762  0.00  0.00    +0.000 A 
ATOM      7  C   UNL     1      33.733  58.967  57.182  0.00  0.00    +0.000 A 
ATOM      8  C   UNL     1      33.946  59.286  55.861  0.00  0.00    +0.000 A 
BRANCH   3  10
ATOM      9  C   UNL     1      36.291  58.794  53.072  0.00  0.00    +0.000 C 
ATOM     10  O   UNL     1      35.106  59.103  53.791  0.00  0.00    +0.000 OA
ENDBRANCH   3  10
BRANCH   7  11
ATOM     11  O   UNL     1      32.693  59.547  57.924  0.00  0.00    +0.000 OA
ATOM     12  C   UNL     1      31.573  60.102  57.271  0.00  0.00    +0.000 C 
ENDBRANCH   7  11
ENDBRANCH   1   5
BRANCH   2  13
ATOM     13  C   UNL     1      36.833  54.353  58.652  0.00  0.00    +0.000 A 
ATOM     14  C   UNL     1      37.994  54.702  59.301  0.00  0.00    +0.000 A 
ATOM     15  C   UNL     1      38.782  53.765  59.943  0.00  0.00    +0.000 A 
ATOM     16  C   UNL     1      38.394  52.456  59.928  0.00  0.00    +0.000 A 
ATOM     17  C   UNL     1      37.241  52.065  59.290  0.00  0.00    +0.000 A 
ATOM     18  C   UNL     1      36.468  53.026  58.653  0.00  0.00    +0.000 A 
BRANCH  16  19
ATOM     19  O   UNL     1      39.138  51.451  60.554  0.00  0.00    +0.000 OA
ATOM     20  C   UNL     1      39.354  50.186  59.959  0.00  0.00    +0.000 C 
ENDBRANCH  16  19
BRANCH  18  21
ATOM     21  O   UNL     1      35.324  52.631  58.022  0.00  0.00    +0.000 OA
ATOM     22  C   UNL     1      34.152  52.196  58.634  0.00  0.00    +0.000 C 
ENDBRANCH  18  21
ENDBRANCH   2  13
TORSDOF 6
ENDMDL
MODEL 4
REMARK VINA RESULT:      -6.0      1.442      2.923
REMARK  Name = 
REMARK  6 active torsions:
REMARK  status: ('A' for Active; 'I' for Inactive)
REMARK    1  A    between atoms: O_2  and  C_3
REMARK    2  A    between atoms: C_5  and  C_6
REMARK    3  A    between atoms: C_7  and  C_8
REMARK    4  A    between atoms: C_11  and  O_12
REMARK    5  A    between atoms: C_15  and  O_16
REMARK    6  A    between atoms: C_19  and  O_20
REMARK                            x       y       z     vdW  Elec       q    Type
REMARK                         _______ _______ _______ _____ _____    ______ ____
ROOT
ATOM      1  C   UNL     1      35.849  57.055  58.070  0.00  0.00    +0.000 C 
ATOM      2  C   UNL     1      36.210  55.790  57.890  0.00  0.00    +0.000 C 
ENDROOT
BRANCH   1   5
ATOM      3  C   UNL     1      35.403  58.420  54.618  0.00  0.00    +0.000 A 
ATOM      4  C   UNL     1      35.954  57.694  55.660  0.00  0.00    +0.000 A 
ATOM      5  C   UNL     1      35.342  57.784  56.911  0.00  0.00    +0.000 A 
ATOM      6  C   UNL     1      34.218  58.582  57.091  0.00  0.00    +0.000 A 
ATOM      7  C   UNL     1      33.678  59.302  56.047  0.00  0.00    +0.000 A 
ATOM      8  C   UNL     1      34.293  59.202  54.820  0.00  0.00    +0.000 A 
BRANCH   3  10
ATOM      9  C   UNL     1      36.997  59.278  52.969  0.00  0.00    +0.000 C 
ATOM     10  O   UNL     1      35.965  58.377  53.342  0.00  0.00    +0.000 OA
ENDBRANCH   3  10
BRANCH   7  11
ATOM     11  O   UNL     1      32.543  60.103  56.242  0.00  0.00    +0.000 OA
ATOM     12  C   UNL     1      31.716  60.448  55.153  0.00  0.00    +0.000 C 
ENDBRANCH   7  11
ENDBRANCH   1   5
BRANCH   2  13
ATOM     13  C   UNL     1      36.713  55.079  59.053  0.00  0.00    +0.000 A 
ATOM     14  C   UNL     1      37.368  55.683  60.100  0.00  0.00    +0.000 A 
ATOM     15  C   UNL     1      37.828  54.963  61.187  0.00  0.00    +0.000 A 
ATOM     16  C   UNL     1      37.625  53.612  61.216  0.00  0.00    +0.000 A 
ATOM     17  C   UNL     1      36.975  52.970  60.189  0.00  0.00    +0.000 A 
ATOM     18  C   UNL     1      36.523  53.717  59.110  0.00  0.00    +0.000 A 
BRANCH  16  19
ATOM     19  O   UNL     1      38.061  52.816  62.280  0.00  0.00    +0.000 OA
ATOM     20  C   UNL     1      39.432  52.591  62.545  0.00  0.00    +0.000 C 
ENDBRANCH  16  19
BRANCH  18  21
ATOM     21  O   UNL     1      35.878  53.074  58.094  0.00  0.00    +0.000 OA
ATOM     22  C   UNL     1      35.378  51.774  58.126  0.00  0.00    +0.000 C 
ENDBRANCH  18  21
ENDBRANCH   2  13
TORSDOF 6
ENDMDL
MODEL 5
REMARK VINA RESULT:      -5.9      1.545      7.964
REMARK  Name = 
REMARK  6 active torsions:
REMARK  status: ('A' for Active; 'I' for Inactive)
REMARK    1  A    between atoms: O_2  and  C_3
REMARK    2  A    between atoms: C_5  and  C_6
REMARK    3  A    between atoms: C_7  and  C_8
REMARK    4  A    between atoms: C_11  and  O_12
REMARK    5  A    between atoms: C_15  and  O_16
REMARK    6  A    between atoms: C_19  and  O_20
REMARK                            x       y       z     vdW  Elec       q    Type
REMARK                         _______ _______ _______ _____ _____    ______ ____
ROOT
ATOM      1  C   UNL     1      35.469  55.710  58.217  0.00  0.00    +0.000 C 
ATOM      2  C   UNL     1      36.066  56.628  57.467  0.00  0.00    +0.000 C 
ENDROOT
BRANCH   1   5
ATOM      3  C   UNL     1      36.706  52.364  59.335  0.00  0.00    +0.000 A 
ATOM      4  C   UNL     1      35.852  53.315  58.803  0.00  0.00    +0.000 A 
ATOM      5  C   UNL     1      36.297  54.637  58.760  0.00  0.00    +0.000 A 
ATOM      6  C   UNL     1      37.557  54.974  59.239  0.00  0.00    +0.000 A 
ATOM      7  C   UNL     1      38.400  54.019  59.767  0.00  0.00    +0.000 A 
ATOM      8  C   UNL     1      37.947  52.721  59.803  0.00  0.00    +0.000 A 
BRANCH   3  10
ATOM      9  C   UNL     1      35.069  50.653  59.958  0.00  0.00    +0.000 C 
ATOM     10  O   UNL     1      36.326  51.024  59.410  0.00  0.00    +0.000 OA
ENDBRANCH   3  10
BRANCH   7  11
ATOM     11  O   UNL     1      39.670  54.372  60.247  0.00  0.00    +0.000 OA
ATOM     12  C   UNL     1      39.810  55.009  61.498  0.00  0.00    +0.000 C 
ENDBRANCH   7  11
ENDBRANCH   1   5
BRANCH   2  13
ATOM     13  C   UNL     1      35.228  57.689  56.935  0.00  0.00    +0.000 A 
ATOM     14  C   UNL     1      34.184  58.262  57.623  0.00  0.00    +0.000 A 
ATOM     15  C   UNL     1      33.415  59.270  57.073  0.00  0.00    +0.000 A 
ATOM     16  C   UNL     1      33.701  59.705  55.811  0.00  0.00    +0.000 A 
ATOM     17  C   UNL     1      34.735  59.158  55.090  0.00  0.00    +0.000 A 
ATOM     18  C   UNL     1      35.493  58.147  55.664  0.00  0.00    +0.000 A 
BRANCH  16  19
ATOM     19  O   UNL     1      32.967  60.719  55.188  0.00  0.00    +0.000 OA
ATOM     20  C   UNL     1      31.566  60.641  55.009  0.00  0.00    +0.000 C 
ENDBRANCH  16  19
BRANCH  18  21
ATOM     21  O   UNL     1      36.519  57.608  54.944  0.00  0.00    +0.000 OA
ATOM     22  C   UNL     1      37.560  58.309  54.341  0.00  0.00    +0.000 C 
ENDBRANCH  18  21
ENDBRANCH   2  13
TORSDOF 6
ENDMDL
MODEL 6
REMARK VINA RESULT:      -5.9      1.990      2.028
REMARK  Name = 
REMARK  6 active torsions:
REMARK  status: ('A' for Active; 'I' for Inactive)
REMARK    1  A    between atoms: O_2  and  C_3
REMARK    2  A    between atoms: C_5  and  C_6
REMARK    3  A    between atoms: C_7  and  C_8
REMARK    4  A    between atoms: C_11  and  O_12
REMARK    5  A    between atoms: C_15  and  O_16
REMARK    6  A    between atoms: C_19  and  O_20
REMARK                            x       y       z     vdW  Elec       q    Type
REMARK                         _______ _______ _______ _____ _____    ______ ____
ROOT
ATOM      1  C   UNL     1      35.569  57.076  57.890  0.00  0.00    +0.000 C 
ATOM      2  C   UNL     1      34.857  56.495  58.848  0.00  0.00    +0.000 C 
ENDROOT
BRANCH   1   5
ATOM      3  C   UNL     1      33.163  59.575  56.497  0.00  0.00    +0.000 A 
ATOM      4  C   UNL     1      33.757  58.723  57.412  0.00  0.00    +0.000 A 
ATOM      5  C   UNL     1      34.875  57.998  56.996  0.00  0.00    +0.000 A 
ATOM      6  C   UNL     1      35.364  58.136  55.703  0.00  0.00    +0.000 A 
ATOM      7  C   UNL     1      34.764  58.987  54.799  0.00  0.00    +0.000 A 
ATOM      8  C   UNL     1      33.664  59.693  55.224  0.00  0.00    +0.000 A 
BRANCH   3  10
ATOM      9  C   UNL     1      31.127  60.774  55.854  0.00  0.00    +0.000 C 
ATOM     10  O   UNL     1      32.042  60.329  56.845  0.00  0.00    +0.000 OA
ENDBRANCH   3  10
BRANCH   7  11
ATOM     11  O   UNL     1      35.268  59.116  53.496  0.00  0.00    +0.000 OA
ATOM     12  C   UNL     1      36.587  58.715  53.197  0.00  0.00    +0.000 C 
ENDBRANCH   7  11
ENDBRANCH   1   5
BRANCH   2  13
ATOM     13  C   UNL     1      35.562  55.580  59.729  0.00  0.00    +0.000 A 
ATOM     14  C   UNL     1      36.853  55.773  60.163  0.00  0.00    +0.000 A 
ATOM     15  C   UNL     1      37.483  54.873  61.002  0.00  0.00    +0.000 A 
ATOM     16  C   UNL     1      36.801  53.762  61.408  0.00  0.00    +0.000 A 
ATOM     17  C   UNL     1      35.510  53.532  60.997  0.00  0.00    +0.000 A 
ATOM     18  C   UNL     1      34.901  54.451  60.154  0.00  0.00    +0.000 A 
BRANCH  16  19
ATOM     19  O   UNL     1      37.371  52.806  62.255  0.00  0.00    +0.000 OA
ATOM     20  C   UNL     1      38.321  53.145  63.247  0.00  0.00    +0.000 C 
ENDBRANCH  16  19
BRANCH  18  21
ATOM     21  O   UNL     1      33.618  54.217  59.749  0.00  0.00    +0.000 OA
ATOM     22  C   UNL     1      33.183  53.154  58.962  0.00  0.00    +0.000 C 
ENDBRANCH  18  21
ENDBRANCH   2  13
TORSDOF 6
ENDMDL
MODEL 7
REMARK VINA RESULT:      -5.8      1.856      3.300
REMARK  Name = 
REMARK  6 active torsions:
REMARK  status: ('A' for Active; 'I' for Inactive)
REMARK    1  A    between atoms: O_2  and  C_3
REMARK    2  A    between atoms: C_5  and  C_6
REMARK    3  A    between atoms: C_7  and  C_8
REMARK    4  A    between atoms: C_11  and  O_12
REMARK    5  A    between atoms: C_15  and  O_16
REMARK    6  A    between atoms: C_19  and  O_20
REMARK                            x       y       z     vdW  Elec       q    Type
REMARK                         _______ _______ _______ _____ _____    ______ ____
ROOT
ATOM      1  C   UNL     1      35.765  56.373  58.431  0.00  0.00    +0.000 C 
ATOM      2  C   UNL     1      36.307  55.180  58.222  0.00  0.00    +0.000 C 
ENDROOT
BRANCH   1   5
ATOM      3  C   UNL     1      36.072  58.027  55.092  0.00  0.00    +0.000 A 
ATOM      4  C   UNL     1      36.371  57.186  56.150  0.00  0.00    +0.000 A 
ATOM      5  C   UNL     1      35.533  57.223  57.266  0.00  0.00    +0.000 A 
ATOM      6  C   UNL     1      34.439  58.080  57.300  0.00  0.00    +0.000 A 
ATOM      7  C   UNL     1      34.152  58.913  56.240  0.00  0.00    +0.000 A 
ATOM      8  C   UNL     1      34.987  58.865  55.148  0.00  0.00    +0.000 A 
BRANCH   3  10
ATOM      9  C   UNL     1      36.754  59.090  52.994  0.00  0.00    +0.000 C 
ATOM     10  O   UNL     1      36.868  58.042  53.946  0.00  0.00    +0.000 OA
ENDBRANCH   3  10
BRANCH   7  11
ATOM     11  O   UNL     1      33.045  59.774  56.287  0.00  0.00    +0.000 OA
ATOM     12  C   UNL     1      32.722  60.585  55.179  0.00  0.00    +0.000 C 
ENDBRANCH   7  11
ENDBRANCH   1   5
BRANCH   2  13
ATOM     13  C   UNL     1      36.532  54.347  59.391  0.00  0.00    +0.000 A 
ATOM     14  C   UNL     1      35.616  54.179  60.403  0.00  0.00    +0.000 A 
ATOM     15  C   UNL     1      35.876  53.374  61.496  0.00  0.00    +0.000 A 
ATOM     16  C   UNL     1      37.078  52.732  61.571  0.00  0.00    +0.000 A 
ATOM     17  C   UNL     1      38.021  52.873  60.581  0.00  0.00    +0.000 A 
ATOM     18  C   UNL     1      37.735  53.686  59.494  0.00  0.00    +0.000 A 
BRANCH  16  19
ATOM     19  O   UNL     1      37.414  51.902  62.646  0.00  0.00    +0.000 OA
ATOM     20  C   UNL     1      36.473  51.046  63.265  0.00  0.00    +0.000 C 
ENDBRANCH  16  19
BRANCH  18  21
ATOM     21  O   UNL     1      38.675  53.823  58.514  0.00  0.00    +0.000 OA
ATOM     22  C   UNL     1      39.542  52.833  58.059  0.00  0.00    +0.000 C 
ENDBRANCH  18  21
ENDBRANCH   2  13
TORSDOF 6
ENDMDL
MODEL 8
REMARK VINA RESULT:      -5.7      2.273      3.128
REMARK  Name = 
REMARK  6 active torsions:
REMARK  status: ('A' for Active; 'I' for Inactive)
REMARK    1  A    between atoms: O_2  and  C_3
REMARK    2  A    between atoms: C_5  and  C_6
REMARK    3  A    between atoms: C_7  and  C_8
REMARK    4  A    between atoms: C_11  and  O_12
REMARK    5  A    between atoms: C_15  and  O_16
REMARK    6  A    between atoms: C_19  and  O_20
REMARK                            x       y       z     vdW  Elec       q    Type
REMARK                         _______ _______ _______ _____ _____    ______ ____
ROOT
ATOM      1  C   UNL     1      35.748  55.964  57.986  0.00  0.00    +0.000 C 
ATOM      2  C   UNL     1      36.564  54.917  58.002  0.00  0.00    +0.000 C 
ENDROOT
BRANCH   1   5
ATOM      3  C   UNL     1      37.021  59.448  57.523  0.00  0.00    +0.000 A 
ATOM      4  C   UNL     1      36.552  58.319  58.171  0.00  0.00    +0.000 A 
ATOM      5  C   UNL     1      36.248  57.201  57.393  0.00  0.00    +0.000 A 
ATOM      6  C   UNL     1      36.414  57.235  56.013  0.00  0.00    +0.000 A 
ATOM      7  C   UNL     1      36.881  58.365  55.377  0.00  0.00    +0.000 A 
ATOM      8  C   UNL     1      37.176  59.458  56.158  0.00  0.00    +0.000 A 
BRANCH   3  10
ATOM      9  C   UNL     1      36.865  60.795  59.562  0.00  0.00    +0.000 C 
ATOM     10  O   UNL     1      37.344  60.601  58.239  0.00  0.00    +0.000 OA
ENDBRANCH   3  10
BRANCH   7  11
ATOM     11  O   UNL     1      37.044  58.387  53.984  0.00  0.00    +0.000 OA
ATOM     12  C   UNL     1      35.974  58.760  53.145  0.00  0.00    +0.000 C 
ENDBRANCH   7  11
ENDBRANCH   1   5
BRANCH   2  13
ATOM     13  C   UNL     1      36.052  53.694  58.595  0.00  0.00    +0.000 A 
ATOM     14  C   UNL     1      34.747  53.520  58.993  0.00  0.00    +0.000 A 
ATOM     15  C   UNL     1      34.306  52.336  59.553  0.00  0.00    +0.000 A 
ATOM     16  C   UNL     1      35.196  51.312  59.716  0.00  0.00    +0.000 A 
ATOM     17  C   UNL     1      36.508  51.445  59.331  0.00  0.00    +0.000 A 
ATOM     18  C   UNL     1      36.925  52.645  58.772  0.00  0.00    +0.000 A 
BRANCH  16  19
ATOM     19  O   UNL     1      34.825  50.085  60.274  0.00  0.00    +0.000 OA
ATOM     20  C   UNL     1      34.922  49.824  61.662  0.00  0.00    +0.000 C 
ENDBRANCH  16  19
BRANCH  18  21
ATOM     21  O   UNL     1      38.230  52.771  58.392  0.00  0.00    +0.000 OA
ATOM     22  C   UNL     1      39.340  52.738  59.232  0.00  0.00    +0.000 C 
ENDBRANCH  18  21
ENDBRANCH   2  13
TORSDOF 6
ENDMDL
MODEL 9
REMARK VINA RESULT:      -5.6      2.719      3.847
REMARK  Name = 
REMARK  6 active torsions:
REMARK  status: ('A' for Active; 'I' for Inactive)
REMARK    1  A    between atoms: O_2  and  C_3
REMARK    2  A    between atoms: C_5  and  C_6
REMARK    3  A    between atoms: C_7  and  C_8
REMARK    4  A    between atoms: C_11  and  O_12
REMARK    5  A    between atoms: C_15  and  O_16
REMARK    6  A    between atoms: C_19  and  O_20
REMARK                            x       y       z     vdW  Elec       q    Type
REMARK                         _______ _______ _______ _____ _____    ______ ____
ROOT
ATOM      1  C   UNL     1      35.911  57.701  58.025  0.00  0.00    +0.000 C 
ATOM      2  C   UNL     1      36.330  56.451  57.867  0.00  0.00    +0.000 C 
ENDROOT
BRANCH   1   5
ATOM      3  C   UNL     1      36.508  59.715  54.933  0.00  0.00    +0.000 A 
ATOM      4  C   UNL     1      35.988  58.728  55.752  0.00  0.00    +0.000 A 
ATOM      5  C   UNL     1      36.404  58.703  57.084  0.00  0.00    +0.000 A 
ATOM      6  C   UNL     1      37.310  59.644  57.559  0.00  0.00    +0.000 A 
ATOM      7  C   UNL     1      37.821  60.623  56.734  0.00  0.00    +0.000 A 
ATOM      8  C   UNL     1      37.403  60.634  55.424  0.00  0.00    +0.000 A 
BRANCH   3  10
ATOM      9  C   UNL     1      35.323  58.797  52.997  0.00  0.00    +0.000 C 
ATOM     10  O   UNL     1      36.137  59.798  53.590  0.00  0.00    +0.000 OA
ENDBRANCH   3  10
BRANCH   7  11
ATOM     11  O   UNL     1      38.735  61.567  57.226  0.00  0.00    +0.000 OA
ATOM     12  C   UNL     1      39.892  61.149  57.916  0.00  0.00    +0.000 C 
ENDBRANCH   7  11
ENDBRANCH   1   5
BRANCH   2  13
ATOM     13  C   UNL     1      35.831  55.466  58.810  0.00  0.00    +0.000 A 
ATOM     14  C   UNL     1      34.543  55.447  59.292  0.00  0.00    +0.000 A 
ATOM     15  C   UNL     1      34.113  54.487  60.189  0.00  0.00    +0.000 A 
ATOM     16  C   UNL     1      34.997  53.534  60.609  0.00  0.00    +0.000 A 
ATOM     17  C   UNL     1      36.293  53.518  60.152  0.00  0.00    +0.000 A 
ATOM     18  C   UNL     1      36.699  54.493  59.251  0.00  0.00    +0.000 A 
BRANCH  16  19
ATOM     19  O   UNL     1      34.638  52.532  61.515  0.00  0.00    +0.000 OA
ATOM     20  C   UNL     1      35.172  51.224  61.449  0.00  0.00    +0.000 C 
ENDBRANCH  16  19
BRANCH  18  21
ATOM     21  O   UNL     1      37.987  54.472  58.801  0.00  0.00    +0.000 OA
ATOM     22  C   UNL     1      38.758  53.338  58.560  0.00  0.00    +0.000 C 
ENDBRANCH  18  21
ENDBRANCH   2  13
TORSDOF 6
ENDMDL
MODEL 10
REMARK VINA RESULT:      -5.6      1.811      8.142
REMARK  Name = 
REMARK  6 active torsions:
REMARK  status: ('A' for Active; 'I' for Inactive)
REMARK    1  A    between atoms: O_2  and  C_3
REMARK    2  A    between atoms: C_5  and  C_6
REMARK    3  A    between atoms: C_7  and  C_8
REMARK    4  A    between atoms: C_11  and  O_12
REMARK    5  A    between atoms: C_15  and  O_16
REMARK    6  A    between atoms: C_19  and  O_20
REMARK                            x       y       z     vdW  Elec       q    Type
REMARK                         _______ _______ _______ _____ _____    ______ ____
ROOT
ATOM      1  C   UNL     1      36.498  55.312  57.928  0.00  0.00    +0.000 C 
ATOM      2  C   UNL     1      36.029  56.519  58.222  0.00  0.00    +0.000 C 
ENDROOT
BRANCH   1   5
ATOM      3  C   UNL     1      38.467  53.200  60.302  0.00  0.00    +0.000 A 
ATOM      4  C   UNL     1      38.197  54.020  59.220  0.00  0.00    +0.000 A 
ATOM      5  C   UNL     1      36.880  54.445  59.039  0.00  0.00    +0.000 A 
ATOM      6  C   UNL     1      35.883  54.051  59.923  0.00  0.00    +0.000 A 
ATOM      7  C   UNL     1      36.163  53.234  60.997  0.00  0.00    +0.000 A 
ATOM      8  C   UNL     1      37.465  52.823  61.161  0.00  0.00    +0.000 A 
BRANCH   3  10
ATOM      9  C   UNL     1      40.886  53.396  59.979  0.00  0.00    +0.000 C 
ATOM     10  O   UNL     1      39.761  52.737  60.542  0.00  0.00    +0.000 OA
ENDBRANCH   3  10
BRANCH   7  11
ATOM     11  O   UNL     1      35.147  52.843  61.882  0.00  0.00    +0.000 OA
ATOM     12  C   UNL     1      35.346  51.762  62.767  0.00  0.00    +0.000 C 
ENDBRANCH   7  11
ENDBRANCH   1   5
BRANCH   2  13
ATOM     13  C   UNL     1      35.653  57.369  57.106  0.00  0.00    +0.000 A 
ATOM     14  C   UNL     1      36.252  57.322  55.869  0.00  0.00    +0.000 A 
ATOM     15  C   UNL     1      35.859  58.152  54.836  0.00  0.00    +0.000 A 
ATOM     16  C   UNL     1      34.847  59.043  55.055  0.00  0.00    +0.000 A 
ATOM     17  C   UNL     1      34.222  59.121  56.276  0.00  0.00    +0.000 A 
ATOM     18  C   UNL     1      34.637  58.276  57.297  0.00  0.00    +0.000 A 
BRANCH  16  19
ATOM     19  O   UNL     1      34.394  59.915  54.060  0.00  0.00    +0.000 OA
ATOM     20  C   UNL     1      35.169  61.003  53.596  0.00  0.00    +0.000 C 
ENDBRANCH  16  19
BRANCH  18  21
ATOM     21  O   UNL     1      34.012  58.358  58.508  0.00  0.00    +0.000 OA
ATOM     22  C   UNL     1      33.921  59.490  59.314  0.00  0.00    +0.000 C 
ENDBRANCH  18  21
ENDBRANCH   2  13
TORSDOF 6
ENDMDL
