REMARK  Name = 
REMARK  4 active torsions:
REMARK  status: ('A' for Active; 'I' for Inactive)
REMARK    1  A    between atoms: O_2  and  C_3
REMARK    2  A    between atoms: C_6  and  C_7
REMARK    3  A    between atoms: C_8  and  C_9
REMARK    4  A    between atoms: C_18  and  O_19
REMARK                            x       y       z     vdW  Elec       q    Type
REMARK                         _______ _______ _______ _____ _____    ______ ____
ROOT
ATOM      1  C   UNL     1       2.793   1.178   0.506  0.00  0.00    +0.000 A 
ATOM      2  C   UNL     1       1.415   1.360   0.561  0.00  0.00    +0.000 A 
ATOM      3  C   UNL     1       0.545   0.384   0.165  0.00  0.00    +0.000 A 
ATOM      4  C   UNL     1       0.907  -0.812  -0.305  0.00  0.00    +0.000 A 
ATOM      5  C   UNL     1       2.310  -1.014  -0.368  0.00  0.00    +0.000 A 
ATOM      6  C   UNL     1       3.191  -0.048   0.025  0.00  0.00    +0.000 A 
ENDROOT
BRANCH   1   8
ATOM      7  C   UNL     1       3.372   3.386   1.387  0.00  0.00    +0.000 C 
ATOM      8  O   UNL     1       3.721   2.123   0.891  0.00  0.00    +0.000 OA
ENDBRANCH   1   8
BRANCH   4   9
ATOM      9  C   UNL     1       0.190  -1.947  -0.763  0.00  0.00    +0.000 C 
ATOM     10  C   UNL     1      -1.042  -2.098  -0.837  0.00  0.00    +0.000 C 
BRANCH  10  11
ATOM     11  C   UNL     1      -2.000  -1.105  -0.456  0.00  0.00    +0.000 A 
ATOM     12  C   UNL     1      -3.325  -1.537  -0.642  0.00  0.00    +0.000 A 
ATOM     13  C   UNL     1      -4.409  -0.760  -0.347  0.00  0.00    +0.000 A 
ATOM     14  O   UNL     1      -5.714  -1.239  -0.552  0.00  0.00    +0.000 OA
ATOM     15  C   UNL     1      -4.193   0.508   0.157  0.00  0.00    +0.000 A 
ATOM     16  C   UNL     1      -2.901   0.957   0.349  0.00  0.00    +0.000 A 
ATOM     17  O   UNL     1      -2.687   2.256   0.866  0.00  0.00    +0.000 OA
ATOM     18  C   UNL     1      -1.873   0.131   0.035  0.00  0.00    +0.000 A 
ENDBRANCH  10  11
ENDBRANCH   4   9
BRANCH   6  19
ATOM     19  O   UNL     1       4.558  -0.270  -0.047  0.00  0.00    +0.000 OA
ATOM     20  C   UNL     1       5.143  -1.454  -0.509  0.00  0.00    +0.000 C 
ENDBRANCH   6  19
TORSDOF 4
