REMARK  Name = 
REMARK  5 active torsions:
REMARK  status: ('A' for Active; 'I' for Inactive)
REMARK    1  A    between atoms: O_2  and  C_3
REMARK    2  A    between atoms: C_5  and  C_6
REMARK    3  A    between atoms: C_7  and  C_8
REMARK    4  A    between atoms: C_13  and  O_14
REMARK    5  A    between atoms: C_18  and  O_19
REMARK                            x       y       z     vdW  Elec       q    Type
REMARK                         _______ _______ _______ _____ _____    ______ ____
ROOT
ATOM      1  C   UNL     1      -0.158   0.696  -0.275  0.00  0.00    +0.000 C 
ATOM      2  C   UNL     1       0.698  -0.222   0.071  0.00  0.00    +0.000 C 
ENDROOT
BRANCH   2   3
ATOM      3  C   UNL     1       2.157  -0.053  -0.105  0.00  0.00    +0.000 A 
ATOM      4  C   UNL     1       2.638   1.115  -0.655  0.00  0.00    +0.000 A 
ATOM      5  C   UNL     1       3.996   1.290  -0.826  0.00  0.00    +0.000 A 
ATOM      6  C   UNL     1       4.877   0.277  -0.439  0.00  0.00    +0.000 A 
ATOM      7  O   UNL     1       6.245   0.431  -0.602  0.00  0.00    +0.000 OA
ATOM      8  C   UNL     1       4.401  -0.892   0.111  0.00  0.00    +0.000 A 
ATOM      9  C   UNL     1       3.038  -1.038   0.269  0.00  0.00    +0.000 A 
BRANCH   8  10
ATOM     10  O   UNL     1       5.323  -1.862   0.475  0.00  0.00    +0.000 OA
ATOM     11  C   UNL     1       4.912  -3.087   1.045  0.00  0.00    +0.000 C 
ENDBRANCH   8  10
ENDBRANCH   2   3
BRANCH   1  14
ATOM     12  C   UNL     1      -3.494  -0.736   0.589  0.00  0.00    +0.000 A 
ATOM     13  C   UNL     1      -2.141  -0.569   0.421  0.00  0.00    +0.000 A 
ATOM     14  C   UNL     1      -1.600   0.573  -0.121  0.00  0.00    +0.000 A 
ATOM     15  C   UNL     1      -2.475   1.566  -0.499  0.00  0.00    +0.000 A 
ATOM     16  C   UNL     1      -3.840   1.440  -0.349  0.00  0.00    +0.000 A 
ATOM     17  C   UNL     1      -4.342   0.274   0.202  0.00  0.00    +0.000 A 
BRANCH  12  19
ATOM     18  C   UNL     1      -5.414  -2.047   1.302  0.00  0.00    +0.000 C 
ATOM     19  O   UNL     1      -4.016  -1.892   1.136  0.00  0.00    +0.000 OA
ENDBRANCH  12  19
BRANCH  16  20
ATOM     20  O   UNL     1      -4.708   2.445  -0.733  0.00  0.00    +0.000 OA
ATOM     21  C   UNL     1      -6.098   2.292  -0.569  0.00  0.00    +0.000 C 
ENDBRANCH  16  20
ENDBRANCH   1  14
TORSDOF 5
