MODEL 1
REMARK VINA RESULT:      -6.6      0.000      0.000
REMARK  Name = 
REMARK  5 active torsions:
REMARK  status: ('A' for Active; 'I' for Inactive)
REMARK    1  A    between atoms: O_2  and  C_3
REMARK    2  A    between atoms: C_6  and  C_7
REMARK    3  A    between atoms: C_8  and  C_9
REMARK    4  A    between atoms: C_13  and  O_14
REMARK    5  A    between atoms: C_16  and  O_17
REMARK                            x       y       z     vdW  Elec       q    Type
REMARK                         _______ _______ _______ _____ _____    ______ ____
ROOT
ATOM      1  C   UNL     1      36.632  54.456  58.418  0.00  0.00    +0.000 A 
ATOM      2  C   UNL     1      37.971  54.543  58.740  0.00  0.00    +0.000 A 
ATOM      3  C   UNL     1      38.638  53.433  59.209  0.00  0.00    +0.000 A 
ATOM      4  C   UNL     1      38.014  52.209  59.374  0.00  0.00    +0.000 A 
ATOM      5  C   UNL     1      36.687  52.124  59.052  0.00  0.00    +0.000 A 
ATOM      6  C   UNL     1      35.997  53.242  58.576  0.00  0.00    +0.000 A 
ATOM      7  O   UNL     1      38.957  51.309  59.857  0.00  0.00    +0.000 OA
ATOM      8  C   UNL     1      40.211  51.946  59.831  0.00  0.00    +0.000 C 
ATOM      9  O   UNL     1      39.973  53.313  59.586  0.00  0.00    +0.000 OA
ENDROOT
BRANCH   1  11
ATOM     10  C   UNL     1      36.351  56.409  57.000  0.00  0.00    +0.000 C 
ATOM     11  C   UNL     1      35.860  55.591  57.916  0.00  0.00    +0.000 C 
BRANCH  10  15
ATOM     12  C   UNL     1      33.897  59.663  55.705  0.00  0.00    +0.000 A 
ATOM     13  C   UNL     1      33.747  59.130  56.965  0.00  0.00    +0.000 A 
ATOM     14  C   UNL     1      34.550  58.076  57.371  0.00  0.00    +0.000 A 
ATOM     15  C   UNL     1      35.508  57.531  56.547  0.00  0.00    +0.000 A 
ATOM     16  C   UNL     1      35.637  58.084  55.288  0.00  0.00    +0.000 A 
ATOM     17  C   UNL     1      34.851  59.127  54.873  0.00  0.00    +0.000 A 
ATOM     18  O   UNL     1      35.015  59.654  53.596  0.00  0.00    +0.000 OA
BRANCH  12  20
ATOM     19  C   UNL     1      31.722  60.526  55.015  0.00  0.00    +0.000 C 
ATOM     20  O   UNL     1      33.098  60.734  55.261  0.00  0.00    +0.000 OA
ENDBRANCH  12  20
ENDBRANCH  10  15
ENDBRANCH   1  11
BRANCH   5  21
ATOM     21  O   UNL     1      35.991  50.927  59.192  0.00  0.00    +0.000 OA
ATOM     22  C   UNL     1      35.590  50.430  60.454  0.00  0.00    +0.000 C 
ENDBRANCH   5  21
BRANCH   6  23
ATOM     23  O   UNL     1      34.651  53.153  58.253  0.00  0.00    +0.000 OA
ATOM     24  C   UNL     1      33.652  53.377  59.255  0.00  0.00    +0.000 C 
ENDBRANCH   6  23
TORSDOF 5
ENDMDL
MODEL 2
REMARK VINA RESULT:      -6.4      0.873      1.537
REMARK  Name = 
REMARK  5 active torsions:
REMARK  status: ('A' for Active; 'I' for Inactive)
REMARK    1  A    between atoms: O_2  and  C_3
REMARK    2  A    between atoms: C_6  and  C_7
REMARK    3  A    between atoms: C_8  and  C_9
REMARK    4  A    between atoms: C_13  and  O_14
REMARK    5  A    between atoms: C_16  and  O_17
REMARK                            x       y       z     vdW  Elec       q    Type
REMARK                         _______ _______ _______ _____ _____    ______ ____
ROOT
ATOM      1  C   UNL     1      36.594  54.433  58.425  0.00  0.00    +0.000 A 
ATOM      2  C   UNL     1      37.961  54.422  58.618  0.00  0.00    +0.000 A 
ATOM      3  C   UNL     1      38.593  53.254  58.981  0.00  0.00    +0.000 A 
ATOM      4  C   UNL     1      37.907  52.067  59.166  0.00  0.00    +0.000 A 
ATOM      5  C   UNL     1      36.552  52.079  58.974  0.00  0.00    +0.000 A 
ATOM      6  C   UNL     1      35.897  53.257  58.605  0.00  0.00    +0.000 A 
ATOM      7  O   UNL     1      38.829  51.090  59.525  0.00  0.00    +0.000 OA
ATOM      8  C   UNL     1      40.115  51.646  59.396  0.00  0.00    +0.000 C 
ATOM      9  O   UNL     1      39.948  53.035  59.221  0.00  0.00    +0.000 OA
ENDROOT
BRANCH   1  11
ATOM     10  C   UNL     1      36.241  56.384  57.020  0.00  0.00    +0.000 C 
ATOM     11  C   UNL     1      35.856  55.634  58.039  0.00  0.00    +0.000 C 
BRANCH  10  15
ATOM     12  C   UNL     1      33.931  59.852  56.058  0.00  0.00    +0.000 A 
ATOM     13  C   UNL     1      34.819  59.326  55.147  0.00  0.00    +0.000 A 
ATOM     14  C   UNL     1      35.560  58.201  55.473  0.00  0.00    +0.000 A 
ATOM     15  C   UNL     1      35.442  57.580  56.695  0.00  0.00    +0.000 A 
ATOM     16  C   UNL     1      34.545  58.128  57.590  0.00  0.00    +0.000 A 
ATOM     17  C   UNL     1      33.804  59.240  57.281  0.00  0.00    +0.000 A 
ATOM     18  O   UNL     1      32.912  59.759  58.214  0.00  0.00    +0.000 OA
BRANCH  12  20
ATOM     19  C   UNL     1      33.778  62.115  55.158  0.00  0.00    +0.000 C 
ATOM     20  O   UNL     1      33.162  60.993  55.759  0.00  0.00    +0.000 OA
ENDBRANCH  12  20
ENDBRANCH  10  15
ENDBRANCH   1  11
BRANCH   5  21
ATOM     21  O   UNL     1      35.794  50.925  59.141  0.00  0.00    +0.000 OA
ATOM     22  C   UNL     1      35.483  50.406  60.420  0.00  0.00    +0.000 C 
ENDBRANCH   5  21
BRANCH   6  23
ATOM     23  O   UNL     1      34.523  53.267  58.412  0.00  0.00    +0.000 OA
ATOM     24  C   UNL     1      33.642  53.511  59.515  0.00  0.00    +0.000 C 
ENDBRANCH   6  23
TORSDOF 5
ENDMDL
MODEL 3
REMARK VINA RESULT:      -6.2      1.674      8.520
REMARK  Name = 
REMARK  5 active torsions:
REMARK  status: ('A' for Active; 'I' for Inactive)
REMARK    1  A    between atoms: O_2  and  C_3
REMARK    2  A    between atoms: C_6  and  C_7
REMARK    3  A    between atoms: C_8  and  C_9
REMARK    4  A    between atoms: C_13  and  O_14
REMARK    5  A    between atoms: C_16  and  O_17
REMARK                            x       y       z     vdW  Elec       q    Type
REMARK                         _______ _______ _______ _____ _____    ______ ____
ROOT
ATOM      1  C   UNL     1      35.298  57.550  57.063  0.00  0.00    +0.000 A 
ATOM      2  C   UNL     1      34.420  58.175  57.925  0.00  0.00    +0.000 A 
ATOM      3  C   UNL     1      33.624  59.202  57.469  0.00  0.00    +0.000 A 
ATOM      4  C   UNL     1      33.666  59.646  56.159  0.00  0.00    +0.000 A 
ATOM      5  C   UNL     1      34.537  59.024  55.305  0.00  0.00    +0.000 A 
ATOM      6  C   UNL     1      35.350  57.981  55.754  0.00  0.00    +0.000 A 
ATOM      7  O   UNL     1      32.750  60.682  56.028  0.00  0.00    +0.000 OA
ATOM      8  C   UNL     1      32.020  60.765  57.228  0.00  0.00    +0.000 C 
ATOM      9  O   UNL     1      32.684  59.954  58.170  0.00  0.00    +0.000 OA
ENDROOT
BRANCH   1  11
ATOM     10  C   UNL     1      35.724  55.455  58.218  0.00  0.00    +0.000 C 
ATOM     11  C   UNL     1      36.172  56.454  57.476  0.00  0.00    +0.000 C 
BRANCH  10  15
ATOM     12  C   UNL     1      38.452  52.345  59.299  0.00  0.00    +0.000 A 
ATOM     13  C   UNL     1      37.153  52.049  58.952  0.00  0.00    +0.000 A 
ATOM     14  C   UNL     1      36.281  53.067  58.604  0.00  0.00    +0.000 A 
ATOM     15  C   UNL     1      36.670  54.388  58.592  0.00  0.00    +0.000 A 
ATOM     16  C   UNL     1      37.977  54.656  58.945  0.00  0.00    +0.000 A 
ATOM     17  C   UNL     1      38.852  53.659  59.291  0.00  0.00    +0.000 A 
ATOM     18  O   UNL     1      40.161  53.976  59.640  0.00  0.00    +0.000 OA
BRANCH  12  20
ATOM     19  C   UNL     1      38.905  50.011  59.847  0.00  0.00    +0.000 C 
ATOM     20  O   UNL     1      39.365  51.334  59.659  0.00  0.00    +0.000 OA
ENDBRANCH  12  20
ENDBRANCH  10  15
ENDBRANCH   1  11
BRANCH   5  21
ATOM     21  O   UNL     1      34.636  59.414  53.973  0.00  0.00    +0.000 OA
ATOM     22  C   UNL     1      35.240  60.634  53.587  0.00  0.00    +0.000 C 
ENDBRANCH   5  21
BRANCH   6  23
ATOM     23  O   UNL     1      36.232  57.353  54.886  0.00  0.00    +0.000 OA
ATOM     24  C   UNL     1      37.486  57.967  54.566  0.00  0.00    +0.000 C 
ENDBRANCH   6  23
TORSDOF 5
ENDMDL
MODEL 4
REMARK VINA RESULT:      -6.2     11.366     12.423
REMARK  Name = 
REMARK  5 active torsions:
REMARK  status: ('A' for Active; 'I' for Inactive)
REMARK    1  A    between atoms: O_2  and  C_3
REMARK    2  A    between atoms: C_6  and  C_7
REMARK    3  A    between atoms: C_8  and  C_9
REMARK    4  A    between atoms: C_13  and  O_14
REMARK    5  A    between atoms: C_16  and  O_17
REMARK                            x       y       z     vdW  Elec       q    Type
REMARK                         _______ _______ _______ _____ _____    ______ ____
ROOT
ATOM      1  C   UNL     1      32.685  44.659  61.845  0.00  0.00    +0.000 A 
ATOM      2  C   UNL     1      33.827  45.041  62.520  0.00  0.00    +0.000 A 
ATOM      3  C   UNL     1      35.059  44.613  62.081  0.00  0.00    +0.000 A 
ATOM      4  C   UNL     1      35.209  43.801  60.971  0.00  0.00    +0.000 A 
ATOM      5  C   UNL     1      34.076  43.424  60.301  0.00  0.00    +0.000 A 
ATOM      6  C   UNL     1      32.818  43.850  60.736  0.00  0.00    +0.000 A 
ATOM      7  O   UNL     1      36.567  43.554  60.800  0.00  0.00    +0.000 OA
ATOM      8  C   UNL     1      37.268  44.359  61.717  0.00  0.00    +0.000 C 
ATOM      9  O   UNL     1      36.317  44.883  62.616  0.00  0.00    +0.000 OA
ENDROOT
BRANCH   1  11
ATOM     10  C   UNL     1      30.941  46.328  62.129  0.00  0.00    +0.000 C 
ATOM     11  C   UNL     1      31.344  45.074  62.252  0.00  0.00    +0.000 C 
BRANCH  10  15
ATOM     12  C   UNL     1      26.975  47.290  63.406  0.00  0.00    +0.000 A 
ATOM     13  C   UNL     1      27.673  46.262  63.998  0.00  0.00    +0.000 A 
ATOM     14  C   UNL     1      28.957  45.962  63.574  0.00  0.00    +0.000 A 
ATOM     15  C   UNL     1      29.574  46.665  62.563  0.00  0.00    +0.000 A 
ATOM     16  C   UNL     1      28.852  47.691  61.987  0.00  0.00    +0.000 A 
ATOM     17  C   UNL     1      27.581  48.000  62.396  0.00  0.00    +0.000 A 
ATOM     18  O   UNL     1      26.890  49.042  61.786  0.00  0.00    +0.000 OA
BRANCH  12  20
ATOM     19  C   UNL     1      25.474  48.397  64.979  0.00  0.00    +0.000 C 
ATOM     20  O   UNL     1      25.669  47.622  63.812  0.00  0.00    +0.000 OA
ENDBRANCH  12  20
ENDBRANCH  10  15
ENDBRANCH   1  11
BRANCH   5  21
ATOM     21  O   UNL     1      34.146  42.609  59.176  0.00  0.00    +0.000 OA
ATOM     22  C   UNL     1      34.552  43.100  57.913  0.00  0.00    +0.000 C 
ENDBRANCH   5  21
BRANCH   6  23
ATOM     23  O   UNL     1      31.672  43.466  60.056  0.00  0.00    +0.000 OA
ATOM     24  C   UNL     1      31.068  42.195  60.324  0.00  0.00    +0.000 C 
ENDBRANCH   6  23
TORSDOF 5
ENDMDL
MODEL 5
REMARK VINA RESULT:      -6.1      1.887      3.355
REMARK  Name = 
REMARK  5 active torsions:
REMARK  status: ('A' for Active; 'I' for Inactive)
REMARK    1  A    between atoms: O_2  and  C_3
REMARK    2  A    between atoms: C_6  and  C_7
REMARK    3  A    between atoms: C_8  and  C_9
REMARK    4  A    between atoms: C_13  and  O_14
REMARK    5  A    between atoms: C_16  and  O_17
REMARK                            x       y       z     vdW  Elec       q    Type
REMARK                         _______ _______ _______ _____ _____    ______ ____
ROOT
ATOM      1  C   UNL     1      36.200  53.513  59.610  0.00  0.00    +0.000 A 
ATOM      2  C   UNL     1      35.381  53.403  60.715  0.00  0.00    +0.000 A 
ATOM      3  C   UNL     1      35.664  52.471  61.689  0.00  0.00    +0.000 A 
ATOM      4  C   UNL     1      36.754  51.624  61.609  0.00  0.00    +0.000 A 
ATOM      5  C   UNL     1      37.567  51.735  60.513  0.00  0.00    +0.000 A 
ATOM      6  C   UNL     1      37.292  52.676  59.517  0.00  0.00    +0.000 A 
ATOM      7  O   UNL     1      36.753  50.816  62.740  0.00  0.00    +0.000 OA
ATOM      8  C   UNL     1      35.746  51.286  63.602  0.00  0.00    +0.000 C 
ATOM      9  O   UNL     1      34.970  52.204  62.867  0.00  0.00    +0.000 OA
ENDROOT
BRANCH   1  11
ATOM     10  C   UNL     1      35.978  55.781  58.764  0.00  0.00    +0.000 C 
ATOM     11  C   UNL     1      35.963  54.477  58.538  0.00  0.00    +0.000 C 
BRANCH  10  15
ATOM     12  C   UNL     1      35.269  58.397  55.458  0.00  0.00    +0.000 A 
ATOM     13  C   UNL     1      36.180  57.370  55.356  0.00  0.00    +0.000 A 
ATOM     14  C   UNL     1      36.399  56.531  56.436  0.00  0.00    +0.000 A 
ATOM     15  C   UNL     1      35.728  56.687  57.629  0.00  0.00    +0.000 A 
ATOM     16  C   UNL     1      34.821  57.724  57.703  0.00  0.00    +0.000 A 
ATOM     17  C   UNL     1      34.594  58.563  56.643  0.00  0.00    +0.000 A 
ATOM     18  O   UNL     1      33.670  59.596  56.762  0.00  0.00    +0.000 OA
BRANCH  12  20
ATOM     19  C   UNL     1      35.411  58.894  53.073  0.00  0.00    +0.000 C 
ATOM     20  O   UNL     1      35.023  59.269  54.380  0.00  0.00    +0.000 OA
ENDBRANCH  12  20
ENDBRANCH  10  15
ENDBRANCH   1  11
BRANCH   5  21
ATOM     21  O   UNL     1      38.683  50.918  60.362  0.00  0.00    +0.000 OA
ATOM     22  C   UNL     1      38.578  49.566  59.958  0.00  0.00    +0.000 C 
ENDBRANCH   5  21
BRANCH   6  23
ATOM     23  O   UNL     1      38.117  52.785  58.407  0.00  0.00    +0.000 OA
ATOM     24  C   UNL     1      39.398  53.416  58.521  0.00  0.00    +0.000 C 
ENDBRANCH   6  23
TORSDOF 5
ENDMDL
MODEL 6
REMARK VINA RESULT:      -6.0      2.824      8.097
REMARK  Name = 
REMARK  5 active torsions:
REMARK  status: ('A' for Active; 'I' for Inactive)
REMARK    1  A    between atoms: O_2  and  C_3
REMARK    2  A    between atoms: C_6  and  C_7
REMARK    3  A    between atoms: C_8  and  C_9
REMARK    4  A    between atoms: C_13  and  O_14
REMARK    5  A    between atoms: C_16  and  O_17
REMARK                            x       y       z     vdW  Elec       q    Type
REMARK                         _______ _______ _______ _____ _____    ______ ____
ROOT
ATOM      1  C   UNL     1      36.196  57.307  57.214  0.00  0.00    +0.000 A 
ATOM      2  C   UNL     1      36.058  57.100  55.856  0.00  0.00    +0.000 A 
ATOM      3  C   UNL     1      36.344  58.117  54.974  0.00  0.00    +0.000 A 
ATOM      4  C   UNL     1      36.772  59.364  55.395  0.00  0.00    +0.000 A 
ATOM      5  C   UNL     1      36.909  59.567  56.742  0.00  0.00    +0.000 A 
ATOM      6  C   UNL     1      36.622  58.544  57.649  0.00  0.00    +0.000 A 
ATOM      7  O   UNL     1      36.970  60.152  54.268  0.00  0.00    +0.000 OA
ATOM      8  C   UNL     1      36.822  59.329  53.137  0.00  0.00    +0.000 C 
ATOM      9  O   UNL     1      36.270  58.112  53.583  0.00  0.00    +0.000 OA
ENDROOT
BRANCH   1  11
ATOM     10  C   UNL     1      36.238  55.009  58.003  0.00  0.00    +0.000 C 
ATOM     11  C   UNL     1      35.910  56.274  58.208  0.00  0.00    +0.000 C 
BRANCH  10  15
ATOM     12  C   UNL     1      35.310  52.179  61.072  0.00  0.00    +0.000 A 
ATOM     13  C   UNL     1      35.916  53.375  61.382  0.00  0.00    +0.000 A 
ATOM     14  C   UNL     1      36.210  54.282  60.376  0.00  0.00    +0.000 A 
ATOM     15  C   UNL     1      35.915  54.028  59.056  0.00  0.00    +0.000 A 
ATOM     16  C   UNL     1      35.308  52.821  58.773  0.00  0.00    +0.000 A 
ATOM     17  C   UNL     1      35.010  51.914  59.757  0.00  0.00    +0.000 A 
ATOM     18  O   UNL     1      34.398  50.709  59.427  0.00  0.00    +0.000 OA
BRANCH  12  20
ATOM     19  C   UNL     1      35.322  51.506  63.417  0.00  0.00    +0.000 C 
ATOM     20  O   UNL     1      34.997  51.234  62.069  0.00  0.00    +0.000 OA
ENDBRANCH  12  20
ENDBRANCH  10  15
ENDBRANCH   1  11
BRANCH   5  21
ATOM     21  O   UNL     1      37.334  60.794  57.242  0.00  0.00    +0.000 OA
ATOM     22  C   UNL     1      38.697  61.176  57.244  0.00  0.00    +0.000 C 
ENDBRANCH   5  21
BRANCH   6  23
ATOM     23  O   UNL     1      36.761  58.754  59.013  0.00  0.00    +0.000 OA
ATOM     24  C   UNL     1      35.742  59.447  59.743  0.00  0.00    +0.000 C 
ENDBRANCH   6  23
TORSDOF 5
ENDMDL
MODEL 7
REMARK VINA RESULT:      -6.0      1.902      2.983
REMARK  Name = 
REMARK  5 active torsions:
REMARK  status: ('A' for Active; 'I' for Inactive)
REMARK    1  A    between atoms: O_2  and  C_3
REMARK    2  A    between atoms: C_6  and  C_7
REMARK    3  A    between atoms: C_8  and  C_9
REMARK    4  A    between atoms: C_13  and  O_14
REMARK    5  A    between atoms: C_16  and  O_17
REMARK                            x       y       z     vdW  Elec       q    Type
REMARK                         _______ _______ _______ _____ _____    ______ ____
ROOT
ATOM      1  C   UNL     1      36.171  54.862  58.712  0.00  0.00    +0.000 A 
ATOM      2  C   UNL     1      35.797  53.559  58.449  0.00  0.00    +0.000 A 
ATOM      3  C   UNL     1      36.167  52.552  59.312  0.00  0.00    +0.000 A 
ATOM      4  C   UNL     1      36.910  52.790  60.454  0.00  0.00    +0.000 A 
ATOM      5  C   UNL     1      37.278  54.082  60.715  0.00  0.00    +0.000 A 
ATOM      6  C   UNL     1      36.911  55.115  59.848  0.00  0.00    +0.000 A 
ATOM      7  O   UNL     1      37.110  51.574  61.097  0.00  0.00    +0.000 OA
ATOM      8  C   UNL     1      36.340  50.604  60.430  0.00  0.00    +0.000 C 
ATOM      9  O   UNL     1      35.894  51.189  59.228  0.00  0.00    +0.000 OA
ENDROOT
BRANCH   1  11
ATOM     10  C   UNL     1      36.521  56.266  56.760  0.00  0.00    +0.000 C 
ATOM     11  C   UNL     1      35.816  55.981  57.842  0.00  0.00    +0.000 C 
BRANCH  10  15
ATOM     12  C   UNL     1      35.278  59.596  54.383  0.00  0.00    +0.000 A 
ATOM     13  C   UNL     1      34.647  59.309  55.573  0.00  0.00    +0.000 A 
ATOM     14  C   UNL     1      35.062  58.227  56.332  0.00  0.00    +0.000 A 
ATOM     15  C   UNL     1      36.098  57.412  55.935  0.00  0.00    +0.000 A 
ATOM     16  C   UNL     1      36.712  57.722  54.739  0.00  0.00    +0.000 A 
ATOM     17  C   UNL     1      36.314  58.790  53.977  0.00  0.00    +0.000 A 
ATOM     18  O   UNL     1      36.962  59.066  52.777  0.00  0.00    +0.000 OA
BRANCH  12  20
ATOM     19  C   UNL     1      35.289  61.995  53.940  0.00  0.00    +0.000 C 
ATOM     20  O   UNL     1      34.882  60.688  53.587  0.00  0.00    +0.000 OA
ENDBRANCH  12  20
ENDBRANCH  10  15
ENDBRANCH   1  11
BRANCH   5  21
ATOM     21  O   UNL     1      38.026  54.401  61.844  0.00  0.00    +0.000 OA
ATOM     22  C   UNL     1      39.423  54.182  61.909  0.00  0.00    +0.000 C 
ENDBRANCH   5  21
BRANCH   6  23
ATOM     23  O   UNL     1      37.287  56.424  60.114  0.00  0.00    +0.000 OA
ATOM     24  C   UNL     1      36.468  57.254  60.945  0.00  0.00    +0.000 C 
ENDBRANCH   6  23
TORSDOF 5
ENDMDL
MODEL 8
REMARK VINA RESULT:      -6.0      2.202      8.252
REMARK  Name = 
REMARK  5 active torsions:
REMARK  status: ('A' for Active; 'I' for Inactive)
REMARK    1  A    between atoms: O_2  and  C_3
REMARK    2  A    between atoms: C_6  and  C_7
REMARK    3  A    between atoms: C_8  and  C_9
REMARK    4  A    between atoms: C_13  and  O_14
REMARK    5  A    between atoms: C_16  and  O_17
REMARK                            x       y       z     vdW  Elec       q    Type
REMARK                         _______ _______ _______ _____ _____    ______ ____
ROOT
ATOM      1  C   UNL     1      35.726  57.389  57.098  0.00  0.00    +0.000 A 
ATOM      2  C   UNL     1      36.476  57.333  55.941  0.00  0.00    +0.000 A 
ATOM      3  C   UNL     1      36.104  58.080  54.845  0.00  0.00    +0.000 A 
ATOM      4  C   UNL     1      34.990  58.901  54.852  0.00  0.00    +0.000 A 
ATOM      5  C   UNL     1      34.248  58.955  56.001  0.00  0.00    +0.000 A 
ATOM      6  C   UNL     1      34.613  58.203  57.120  0.00  0.00    +0.000 A 
ATOM      7  O   UNL     1      34.897  59.507  53.605  0.00  0.00    +0.000 OA
ATOM      8  C   UNL     1      36.059  59.183  52.882  0.00  0.00    +0.000 C 
ATOM      9  O   UNL     1      36.718  58.164  53.598  0.00  0.00    +0.000 OA
ENDROOT
BRANCH   1  11
ATOM     10  C   UNL     1      36.118  55.303  58.282  0.00  0.00    +0.000 C 
ATOM     11  C   UNL     1      36.060  56.624  58.299  0.00  0.00    +0.000 C 
BRANCH  10  15
ATOM     12  C   UNL     1      37.133  53.291  61.916  0.00  0.00    +0.000 A 
ATOM     13  C   UNL     1      38.074  54.035  61.241  0.00  0.00    +0.000 A 
ATOM     14  C   UNL     1      37.729  54.682  60.064  0.00  0.00    +0.000 A 
ATOM     15  C   UNL     1      36.461  54.606  59.535  0.00  0.00    +0.000 A 
ATOM     16  C   UNL     1      35.538  53.853  60.233  0.00  0.00    +0.000 A 
ATOM     17  C   UNL     1      35.864  53.208  61.398  0.00  0.00    +0.000 A 
ATOM     18  O   UNL     1      34.901  52.459  62.068  0.00  0.00    +0.000 OA
BRANCH  12  20
ATOM     19  C   UNL     1      38.123  51.379  63.065  0.00  0.00    +0.000 C 
ATOM     20  O   UNL     1      37.449  52.621  63.114  0.00  0.00    +0.000 OA
ENDBRANCH  12  20
ENDBRANCH  10  15
ENDBRANCH   1  11
BRANCH   5  21
ATOM     21  O   UNL     1      33.114  59.757  56.085  0.00  0.00    +0.000 OA
ATOM     22  C   UNL     1      33.188  61.170  56.080  0.00  0.00    +0.000 C 
ENDBRANCH   5  21
BRANCH   6  23
ATOM     23  O   UNL     1      33.858  58.259  58.283  0.00  0.00    +0.000 OA
ATOM     24  C   UNL     1      34.063  59.320  59.224  0.00  0.00    +0.000 C 
ENDBRANCH   6  23
TORSDOF 5
ENDMDL
MODEL 9
REMARK VINA RESULT:      -5.8      1.997      3.548
REMARK  Name = 
REMARK  5 active torsions:
REMARK  status: ('A' for Active; 'I' for Inactive)
REMARK    1  A    between atoms: O_2  and  C_3
REMARK    2  A    between atoms: C_6  and  C_7
REMARK    3  A    between atoms: C_8  and  C_9
REMARK    4  A    between atoms: C_13  and  O_14
REMARK    5  A    between atoms: C_16  and  O_17
REMARK                            x       y       z     vdW  Elec       q    Type
REMARK                         _______ _______ _______ _____ _____    ______ ____
ROOT
ATOM      1  C   UNL     1      36.651  54.067  58.786  0.00  0.00    +0.000 A 
ATOM      2  C   UNL     1      35.443  53.400  58.772  0.00  0.00    +0.000 A 
ATOM      3  C   UNL     1      35.341  52.152  59.346  0.00  0.00    +0.000 A 
ATOM      4  C   UNL     1      36.417  51.525  59.949  0.00  0.00    +0.000 A 
ATOM      5  C   UNL     1      37.614  52.189  59.963  0.00  0.00    +0.000 A 
ATOM      6  C   UNL     1      37.732  53.455  59.384  0.00  0.00    +0.000 A 
ATOM      7  O   UNL     1      35.983  50.292  60.424  0.00  0.00    +0.000 OA
ATOM      8  C   UNL     1      34.588  50.235  60.256  0.00  0.00    +0.000 C 
ATOM      9  O   UNL     1      34.226  51.323  59.436  0.00  0.00    +0.000 OA
ENDROOT
BRANCH   1  11
ATOM     10  C   UNL     1      36.060  55.824  57.214  0.00  0.00    +0.000 C 
ATOM     11  C   UNL     1      36.834  55.392  58.196  0.00  0.00    +0.000 C 
BRANCH  10  15
ATOM     12  C   UNL     1      36.782  59.728  55.626  0.00  0.00    +0.000 A 
ATOM     13  C   UNL     1      36.649  58.644  54.788  0.00  0.00    +0.000 A 
ATOM     14  C   UNL     1      36.414  57.385  55.318  0.00  0.00    +0.000 A 
ATOM     15  C   UNL     1      36.309  57.173  56.674  0.00  0.00    +0.000 A 
ATOM     16  C   UNL     1      36.447  58.277  57.491  0.00  0.00    +0.000 A 
ATOM     17  C   UNL     1      36.679  59.528  56.981  0.00  0.00    +0.000 A 
ATOM     18  O   UNL     1      36.811  60.613  57.842  0.00  0.00    +0.000 OA
BRANCH  12  20
ATOM     19  C   UNL     1      36.446  61.408  53.889  0.00  0.00    +0.000 C 
ATOM     20  O   UNL     1      37.020  61.021  55.121  0.00  0.00    +0.000 OA
ENDBRANCH  12  20
ENDBRANCH  10  15
ENDBRANCH   1  11
BRANCH   5  21
ATOM     21  O   UNL     1      38.741  51.622  60.551  0.00  0.00    +0.000 OA
ATOM     22  C   UNL     1      39.499  50.614  59.911  0.00  0.00    +0.000 C 
ENDBRANCH   5  21
BRANCH   6  23
ATOM     23  O   UNL     1      38.947  54.124  59.399  0.00  0.00    +0.000 OA
ATOM     24  C   UNL     1      39.416  54.739  60.605  0.00  0.00    +0.000 C 
ENDBRANCH   6  23
TORSDOF 5
ENDMDL
MODEL 10
REMARK VINA RESULT:      -5.8      3.071      8.763
REMARK  Name = 
REMARK  5 active torsions:
REMARK  status: ('A' for Active; 'I' for Inactive)
REMARK    1  A    between atoms: O_2  and  C_3
REMARK    2  A    between atoms: C_6  and  C_7
REMARK    3  A    between atoms: C_8  and  C_9
REMARK    4  A    between atoms: C_13  and  O_14
REMARK    5  A    between atoms: C_16  and  O_17
REMARK                            x       y       z     vdW  Elec       q    Type
REMARK                         _______ _______ _______ _____ _____    ______ ____
ROOT
ATOM      1  C   UNL     1      37.654  53.387  58.909  0.00  0.00    +0.000 A 
ATOM      2  C   UNL     1      37.637  54.759  58.759  0.00  0.00    +0.000 A 
ATOM      3  C   UNL     1      36.444  55.443  58.834  0.00  0.00    +0.000 A 
ATOM      4  C   UNL     1      35.238  54.804  59.058  0.00  0.00    +0.000 A 
ATOM      5  C   UNL     1      35.256  53.444  59.208  0.00  0.00    +0.000 A 
ATOM      6  C   UNL     1      36.459  52.736  59.134  0.00  0.00    +0.000 A 
ATOM      7  O   UNL     1      34.239  55.771  59.077  0.00  0.00    +0.000 OA
ATOM      8  C   UNL     1      34.861  57.032  59.029  0.00  0.00    +0.000 C 
ATOM      9  O   UNL     1      36.215  56.811  58.711  0.00  0.00    +0.000 OA
ENDROOT
BRANCH   1  11
ATOM     10  C   UNL     1      39.964  52.939  59.520  0.00  0.00    +0.000 C 
ATOM     11  C   UNL     1      38.881  52.595  58.842  0.00  0.00    +0.000 C 
BRANCH  10  15
ATOM     12  C   UNL     1      43.445  50.483  59.151  0.00  0.00    +0.000 A 
ATOM     13  C   UNL     1      43.330  51.650  58.430  0.00  0.00    +0.000 A 
ATOM     14  C   UNL     1      42.196  52.436  58.560  0.00  0.00    +0.000 A 
ATOM     15  C   UNL     1      41.160  52.087  59.397  0.00  0.00    +0.000 A 
ATOM     16  C   UNL     1      41.301  50.912  60.108  0.00  0.00    +0.000 A 
ATOM     17  C   UNL     1      42.417  50.125  59.990  0.00  0.00    +0.000 A 
ATOM     18  O   UNL     1      42.517  48.949  60.726  0.00  0.00    +0.000 OA
BRANCH  12  20
ATOM     19  C   UNL     1      45.752  49.985  59.770  0.00  0.00    +0.000 C 
ATOM     20  O   UNL     1      44.583  49.662  59.043  0.00  0.00    +0.000 OA
ENDBRANCH  12  20
ENDBRANCH  10  15
ENDBRANCH   1  11
BRANCH   5  21
ATOM     21  O   UNL     1      34.083  52.732  59.436  0.00  0.00    +0.000 OA
ATOM     22  C   UNL     1      33.048  52.655  58.474  0.00  0.00    +0.000 C 
ENDBRANCH   5  21
BRANCH   6  23
ATOM     23  O   UNL     1      36.474  51.358  59.285  0.00  0.00    +0.000 OA
ATOM     24  C   UNL     1      36.408  50.776  60.592  0.00  0.00    +0.000 C 
ENDBRANCH   6  23
TORSDOF 5
ENDMDL
