MODEL 1
REMARK VINA RESULT:      -6.8      0.000      0.000
REMARK  Name = 
REMARK  4 active torsions:
REMARK  status: ('A' for Active; 'I' for Inactive)
REMARK    1  A    between atoms: O_2  and  C_3
REMARK    2  A    between atoms: C_6  and  C_7
REMARK    3  A    between atoms: C_8  and  C_9
REMARK    4  A    between atoms: C_11  and  O_12
REMARK                            x       y       z     vdW  Elec       q    Type
REMARK                         _______ _______ _______ _____ _____    ______ ____
ROOT
ATOM      1  C   UNL     1      30.751  45.354  62.726  0.00  0.00    +0.000 C 
ATOM      2  C   UNL     1      30.830  44.213  62.223  0.00  0.00    +0.000 C 
ENDROOT
BRANCH   2   3
ATOM      3  C   UNL     1      29.805  43.296  61.837  0.00  0.00    +0.000 A 
ATOM      4  C   UNL     1      29.920  42.886  60.494  0.00  0.00    +0.000 A 
ATOM      5  C   UNL     1      29.029  42.008  59.942  0.00  0.00    +0.000 A 
ATOM      6  C   UNL     1      27.997  41.512  60.708  0.00  0.00    +0.000 A 
ATOM      7  C   UNL     1      27.848  41.894  62.044  0.00  0.00    +0.000 A 
ATOM      8  C   UNL     1      28.773  42.776  62.537  0.00  0.00    +0.000 A 
ATOM      9  O   UNL     1      26.733  41.239  62.548  0.00  0.00    +0.000 OA
ATOM     10  C   UNL     1      26.457  40.180  61.650  0.00  0.00    +0.000 C 
ATOM     11  O   UNL     1      26.979  40.624  60.386  0.00  0.00    +0.000 OA
BRANCH   5  12
ATOM     12  O   UNL     1      29.130  41.596  58.623  0.00  0.00    +0.000 OA
ATOM     13  C   UNL     1      28.456  42.187  57.553  0.00  0.00    +0.000 C 
ENDBRANCH   5  12
ENDBRANCH   2   3
BRANCH   1  17
ATOM     14  C   UNL     1      27.161  47.468  63.249  0.00  0.00    +0.000 A 
ATOM     15  C   UNL     1      27.439  46.458  64.165  0.00  0.00    +0.000 A 
ATOM     16  C   UNL     1      28.601  45.766  64.005  0.00  0.00    +0.000 A 
ATOM     17  C   UNL     1      29.502  45.985  63.026  0.00  0.00    +0.000 A 
ATOM     18  C   UNL     1      29.188  47.016  62.115  0.00  0.00    +0.000 A 
ATOM     19  C   UNL     1      28.037  47.745  62.224  0.00  0.00    +0.000 A 
ATOM     20  N   UNL     1      27.735  48.779  61.300  0.00  0.00    +0.000 NA
BRANCH  14  22
ATOM     21  C   UNL     1      25.246  48.332  64.528  0.00  0.00    +0.000 C 
ATOM     22  O   UNL     1      26.006  48.194  63.366  0.00  0.00    +0.000 OA
ENDBRANCH  14  22
ENDBRANCH   1  17
TORSDOF 4
ENDMDL
MODEL 2
REMARK VINA RESULT:      -6.7     12.964     15.188
REMARK  Name = 
REMARK  4 active torsions:
REMARK  status: ('A' for Active; 'I' for Inactive)
REMARK    1  A    between atoms: O_2  and  C_3
REMARK    2  A    between atoms: C_6  and  C_7
REMARK    3  A    between atoms: C_8  and  C_9
REMARK    4  A    between atoms: C_11  and  O_12
REMARK                            x       y       z     vdW  Elec       q    Type
REMARK                         _______ _______ _______ _____ _____    ______ ____
ROOT
ATOM      1  C   UNL     1      34.609  57.605  58.946  0.00  0.00    +0.000 C 
ATOM      2  C   UNL     1      34.993  56.683  59.697  0.00  0.00    +0.000 C 
ENDROOT
BRANCH   2   3
ATOM      3  C   UNL     1      35.888  55.598  59.451  0.00  0.00    +0.000 A 
ATOM      4  C   UNL     1      35.225  54.436  59.007  0.00  0.00    +0.000 A 
ATOM      5  C   UNL     1      35.916  53.291  58.720  0.00  0.00    +0.000 A 
ATOM      6  C   UNL     1      37.285  53.267  58.865  0.00  0.00    +0.000 A 
ATOM      7  C   UNL     1      37.980  54.398  59.302  0.00  0.00    +0.000 A 
ATOM      8  C   UNL     1      37.231  55.512  59.574  0.00  0.00    +0.000 A 
ATOM      9  O   UNL     1      39.329  54.071  59.350  0.00  0.00    +0.000 OA
ATOM     10  C   UNL     1      39.479  52.897  58.575  0.00  0.00    +0.000 C 
ATOM     11  O   UNL     1      38.199  52.245  58.642  0.00  0.00    +0.000 OA
BRANCH   5  12
ATOM     12  O   UNL     1      35.276  52.143  58.283  0.00  0.00    +0.000 OA
ATOM     13  C   UNL     1      34.780  51.142  59.121  0.00  0.00    +0.000 C 
ENDBRANCH   5  12
ENDBRANCH   2   3
BRANCH   1  17
ATOM     14  C   UNL     1      35.532  58.242  54.900  0.00  0.00    +0.000 A 
ATOM     15  C   UNL     1      36.401  57.434  55.627  0.00  0.00    +0.000 A 
ATOM     16  C   UNL     1      36.110  57.220  56.940  0.00  0.00    +0.000 A 
ATOM     17  C   UNL     1      35.046  57.733  57.589  0.00  0.00    +0.000 A 
ATOM     18  C   UNL     1      34.186  58.548  56.822  0.00  0.00    +0.000 A 
ATOM     19  C   UNL     1      34.425  58.799  55.500  0.00  0.00    +0.000 A 
ATOM     20  N   UNL     1      33.552  59.621  54.741  0.00  0.00    +0.000 NA
BRANCH  14  22
ATOM     21  C   UNL     1      36.891  59.159  53.066  0.00  0.00    +0.000 C 
ATOM     22  O   UNL     1      35.778  58.489  53.575  0.00  0.00    +0.000 OA
ENDBRANCH  14  22
ENDBRANCH   1  17
TORSDOF 4
ENDMDL
MODEL 3
REMARK VINA RESULT:      -6.6     12.426     14.681
REMARK  Name = 
REMARK  4 active torsions:
REMARK  status: ('A' for Active; 'I' for Inactive)
REMARK    1  A    between atoms: O_2  and  C_3
REMARK    2  A    between atoms: C_6  and  C_7
REMARK    3  A    between atoms: C_8  and  C_9
REMARK    4  A    between atoms: C_11  and  O_12
REMARK                            x       y       z     vdW  Elec       q    Type
REMARK                         _______ _______ _______ _____ _____    ______ ____
ROOT
ATOM      1  C   UNL     1      34.785  58.143  59.331  0.00  0.00    +0.000 C 
ATOM      2  C   UNL     1      34.659  57.141  60.067  0.00  0.00    +0.000 C 
ENDROOT
BRANCH   2   3
ATOM      3  C   UNL     1      34.825  55.752  59.781  0.00  0.00    +0.000 A 
ATOM      4  C   UNL     1      36.154  55.316  59.952  0.00  0.00    +0.000 A 
ATOM      5  C   UNL     1      36.509  54.016  59.725  0.00  0.00    +0.000 A 
ATOM      6  C   UNL     1      35.554  53.110  59.320  0.00  0.00    +0.000 A 
ATOM      7  C   UNL     1      34.225  53.501  59.139  0.00  0.00    +0.000 A 
ATOM      8  C   UNL     1      33.934  54.817  59.383  0.00  0.00    +0.000 A 
ATOM      9  O   UNL     1      33.508  52.383  58.734  0.00  0.00    +0.000 OA
ATOM     10  C   UNL     1      34.310  51.262  59.053  0.00  0.00    +0.000 C 
ATOM     11  O   UNL     1      35.660  51.756  59.030  0.00  0.00    +0.000 OA
BRANCH   5  12
ATOM     12  O   UNL     1      37.812  53.575  59.890  0.00  0.00    +0.000 OA
ATOM     13  C   UNL     1      38.773  53.541  58.877  0.00  0.00    +0.000 C 
ENDBRANCH   5  12
ENDBRANCH   2   3
BRANCH   1  17
ATOM     14  C   UNL     1      35.499  58.120  55.193  0.00  0.00    +0.000 A 
ATOM     15  C   UNL     1      36.400  57.425  55.994  0.00  0.00    +0.000 A 
ATOM     16  C   UNL     1      36.177  57.426  57.338  0.00  0.00    +0.000 A 
ATOM     17  C   UNL     1      35.152  58.049  57.951  0.00  0.00    +0.000 A 
ATOM     18  C   UNL     1      34.257  58.744  57.108  0.00  0.00    +0.000 A 
ATOM     19  C   UNL     1      34.428  58.780  55.753  0.00  0.00    +0.000 A 
ATOM     20  N   UNL     1      33.520  59.484  54.919  0.00  0.00    +0.000 NA
BRANCH  14  22
ATOM     21  C   UNL     1      36.670  58.862  53.162  0.00  0.00    +0.000 C 
ATOM     22  O   UNL     1      35.676  58.151  53.835  0.00  0.00    +0.000 OA
ENDBRANCH  14  22
ENDBRANCH   1  17
TORSDOF 4
ENDMDL
MODEL 4
REMARK VINA RESULT:      -6.6     13.352     16.229
REMARK  Name = 
REMARK  4 active torsions:
REMARK  status: ('A' for Active; 'I' for Inactive)
REMARK    1  A    between atoms: O_2  and  C_3
REMARK    2  A    between atoms: C_6  and  C_7
REMARK    3  A    between atoms: C_8  and  C_9
REMARK    4  A    between atoms: C_11  and  O_12
REMARK                            x       y       z     vdW  Elec       q    Type
REMARK                         _______ _______ _______ _____ _____    ______ ____
ROOT
ATOM      1  C   UNL     1      36.086  57.711  59.864  0.00  0.00    +0.000 C 
ATOM      2  C   UNL     1      36.056  58.664  59.056  0.00  0.00    +0.000 C 
ENDROOT
BRANCH   2   3
ATOM      3  C   UNL     1      35.873  58.674  57.640  0.00  0.00    +0.000 A 
ATOM      4  C   UNL     1      34.585  59.106  57.261  0.00  0.00    +0.000 A 
ATOM      5  C   UNL     1      34.221  59.182  55.946  0.00  0.00    +0.000 A 
ATOM      6  C   UNL     1      35.125  58.831  54.967  0.00  0.00    +0.000 A 
ATOM      7  C   UNL     1      36.411  58.398  55.301  0.00  0.00    +0.000 A 
ATOM      8  C   UNL     1      36.714  58.343  56.635  0.00  0.00    +0.000 A 
ATOM      9  O   UNL     1      37.081  58.119  54.117  0.00  0.00    +0.000 OA
ATOM     10  C   UNL     1      36.347  58.754  53.087  0.00  0.00    +0.000 C 
ATOM     11  O   UNL     1      34.999  58.822  53.584  0.00  0.00    +0.000 OA
BRANCH   5  12
ATOM     12  O   UNL     1      32.960  59.605  55.560  0.00  0.00    +0.000 OA
ATOM     13  C   UNL     1      32.638  60.914  55.197  0.00  0.00    +0.000 C 
ENDBRANCH   5  12
ENDBRANCH   2   3
BRANCH   1  17
ATOM     14  C   UNL     1      35.208  53.725  58.880  0.00  0.00    +0.000 A 
ATOM     15  C   UNL     1      36.443  54.219  58.472  0.00  0.00    +0.000 A 
ATOM     16  C   UNL     1      36.738  55.511  58.787  0.00  0.00    +0.000 A 
ATOM     17  C   UNL     1      35.925  56.347  59.461  0.00  0.00    +0.000 A 
ATOM     18  C   UNL     1      34.680  55.813  59.860  0.00  0.00    +0.000 A 
ATOM     19  C   UNL     1      34.327  54.524  59.573  0.00  0.00    +0.000 A 
ATOM     20  N   UNL     1      33.072  54.000  59.980  0.00  0.00    +0.000 NA
BRANCH  14  22
ATOM     21  C   UNL     1      35.628  51.302  58.876  0.00  0.00    +0.000 C 
ATOM     22  O   UNL     1      34.862  52.432  58.590  0.00  0.00    +0.000 OA
ENDBRANCH  14  22
ENDBRANCH   1  17
TORSDOF 4
ENDMDL
MODEL 5
REMARK VINA RESULT:      -6.4     11.176     13.726
REMARK  Name = 
REMARK  4 active torsions:
REMARK  status: ('A' for Active; 'I' for Inactive)
REMARK    1  A    between atoms: O_2  and  C_3
REMARK    2  A    between atoms: C_6  and  C_7
REMARK    3  A    between atoms: C_8  and  C_9
REMARK    4  A    between atoms: C_11  and  O_12
REMARK                            x       y       z     vdW  Elec       q    Type
REMARK                         _______ _______ _______ _____ _____    ______ ____
ROOT
ATOM      1  C   UNL     1      34.869  54.148  60.325  0.00  0.00    +0.000 C 
ATOM      2  C   UNL     1      35.848  54.824  59.943  0.00  0.00    +0.000 C 
ENDROOT
BRANCH   2   3
ATOM      3  C   UNL     1      37.205  54.443  59.715  0.00  0.00    +0.000 A 
ATOM      4  C   UNL     1      38.069  54.867  60.745  0.00  0.00    +0.000 A 
ATOM      5  C   UNL     1      39.409  54.596  60.703  0.00  0.00    +0.000 A 
ATOM      6  C   UNL     1      39.930  53.896  59.638  0.00  0.00    +0.000 A 
ATOM      7  C   UNL     1      39.107  53.458  58.596  0.00  0.00    +0.000 A 
ATOM      8  C   UNL     1      37.775  53.761  58.697  0.00  0.00    +0.000 A 
ATOM      9  O   UNL     1      39.908  52.791  57.679  0.00  0.00    +0.000 OA
ATOM     10  C   UNL     1      41.115  52.489  58.354  0.00  0.00    +0.000 C 
ATOM     11  O   UNL     1      41.234  53.502  59.368  0.00  0.00    +0.000 OA
BRANCH   5  12
ATOM     12  O   UNL     1      40.269  55.007  61.709  0.00  0.00    +0.000 OA
ATOM     13  C   UNL     1      39.912  55.851  62.763  0.00  0.00    +0.000 C 
ENDBRANCH   5  12
ENDBRANCH   2   3
BRANCH   1  17
ATOM     14  C   UNL     1      35.235  50.172  61.623  0.00  0.00    +0.000 A 
ATOM     15  C   UNL     1      34.910  50.373  60.285  0.00  0.00    +0.000 A 
ATOM     16  C   UNL     1      34.789  51.659  59.854  0.00  0.00    +0.000 A 
ATOM     17  C   UNL     1      34.959  52.751  60.624  0.00  0.00    +0.000 A 
ATOM     18  C   UNL     1      35.288  52.511  61.976  0.00  0.00    +0.000 A 
ATOM     19  C   UNL     1      35.423  51.244  62.467  0.00  0.00    +0.000 A 
ATOM     20  N   UNL     1      35.754  51.017  63.829  0.00  0.00    +0.000 NA
BRANCH  14  22
ATOM     21  C   UNL     1      34.326  48.080  62.543  0.00  0.00    +0.000 C 
ATOM     22  O   UNL     1      35.370  48.898  62.109  0.00  0.00    +0.000 OA
ENDBRANCH  14  22
ENDBRANCH   1  17
TORSDOF 4
ENDMDL
MODEL 6
REMARK VINA RESULT:      -6.2     13.769     16.689
REMARK  Name = 
REMARK  4 active torsions:
REMARK  status: ('A' for Active; 'I' for Inactive)
REMARK    1  A    between atoms: O_2  and  C_3
REMARK    2  A    between atoms: C_6  and  C_7
REMARK    3  A    between atoms: C_8  and  C_9
REMARK    4  A    between atoms: C_11  and  O_12
REMARK                            x       y       z     vdW  Elec       q    Type
REMARK                         _______ _______ _______ _____ _____    ______ ____
ROOT
ATOM      1  C   UNL     1      34.907  56.667  60.026  0.00  0.00    +0.000 C 
ATOM      2  C   UNL     1      34.730  57.672  59.306  0.00  0.00    +0.000 C 
ENDROOT
BRANCH   2   3
ATOM      3  C   UNL     1      35.393  58.086  58.111  0.00  0.00    +0.000 A 
ATOM      4  C   UNL     1      36.439  58.998  58.357  0.00  0.00    +0.000 A 
ATOM      5  C   UNL     1      37.190  59.508  57.335  0.00  0.00    +0.000 A 
ATOM      6  C   UNL     1      36.925  59.126  56.038  0.00  0.00    +0.000 A 
ATOM      7  C   UNL     1      35.897  58.224  55.752  0.00  0.00    +0.000 A 
ATOM      8  C   UNL     1      35.181  57.750  56.819  0.00  0.00    +0.000 A 
ATOM      9  O   UNL     1      35.872  58.037  54.376  0.00  0.00    +0.000 OA
ATOM     10  C   UNL     1      37.116  58.506  53.891  0.00  0.00    +0.000 C 
ATOM     11  O   UNL     1      37.535  59.495  54.846  0.00  0.00    +0.000 OA
BRANCH   5  12
ATOM     12  O   UNL     1      38.221  60.405  57.563  0.00  0.00    +0.000 OA
ATOM     13  C   UNL     1      38.662  60.802  58.827  0.00  0.00    +0.000 C 
ENDBRANCH   5  12
ENDBRANCH   2   3
BRANCH   1  17
ATOM     14  C   UNL     1      37.485  53.520  58.987  0.00  0.00    +0.000 A 
ATOM     15  C   UNL     1      38.038  54.583  59.694  0.00  0.00    +0.000 A 
ATOM     16  C   UNL     1      37.210  55.609  60.037  0.00  0.00    +0.000 A 
ATOM     17  C   UNL     1      35.897  55.673  59.742  0.00  0.00    +0.000 A 
ATOM     18  C   UNL     1      35.369  54.578  59.024  0.00  0.00    +0.000 A 
ATOM     19  C   UNL     1      36.149  53.520  58.652  0.00  0.00    +0.000 A 
ATOM     20  N   UNL     1      35.605  52.426  57.930  0.00  0.00    +0.000 NA
BRANCH  14  22
ATOM     21  C   UNL     1      38.903  51.575  59.492  0.00  0.00    +0.000 C 
ATOM     22  O   UNL     1      38.273  52.462  58.618  0.00  0.00    +0.000 OA
ENDBRANCH  14  22
ENDBRANCH   1  17
TORSDOF 4
ENDMDL
MODEL 7
REMARK VINA RESULT:      -6.2     12.388     14.391
REMARK  Name = 
REMARK  4 active torsions:
REMARK  status: ('A' for Active; 'I' for Inactive)
REMARK    1  A    between atoms: O_2  and  C_3
REMARK    2  A    between atoms: C_6  and  C_7
REMARK    3  A    between atoms: C_8  and  C_9
REMARK    4  A    between atoms: C_11  and  O_12
REMARK                            x       y       z     vdW  Elec       q    Type
REMARK                         _______ _______ _______ _____ _____    ______ ____
ROOT
ATOM      1  C   UNL     1      36.684  57.541  60.349  0.00  0.00    +0.000 C 
ATOM      2  C   UNL     1      36.937  56.379  60.730  0.00  0.00    +0.000 C 
ENDROOT
BRANCH   2   3
ATOM      3  C   UNL     1      36.565  55.118  60.174  0.00  0.00    +0.000 A 
ATOM      4  C   UNL     1      37.638  54.470  59.528  0.00  0.00    +0.000 A 
ATOM      5  C   UNL     1      37.475  53.251  58.933  0.00  0.00    +0.000 A 
ATOM      6  C   UNL     1      36.242  52.637  58.962  0.00  0.00    +0.000 A 
ATOM      7  C   UNL     1      35.153  53.245  59.592  0.00  0.00    +0.000 A 
ATOM      8  C   UNL     1      35.381  54.467  60.169  0.00  0.00    +0.000 A 
ATOM      9  O   UNL     1      34.061  52.398  59.457  0.00  0.00    +0.000 OA
ATOM     10  C   UNL     1      34.585  51.132  59.104  0.00  0.00    +0.000 C 
ATOM     11  O   UNL     1      35.827  51.419  58.440  0.00  0.00    +0.000 OA
BRANCH   5  12
ATOM     12  O   UNL     1      38.521  52.604  58.295  0.00  0.00    +0.000 OA
ATOM     13  C   UNL     1      39.837  53.067  58.259  0.00  0.00    +0.000 C 
ENDBRANCH   5  12
ENDBRANCH   2   3
BRANCH   1  17
ATOM     14  C   UNL     1      34.791  58.448  56.712  0.00  0.00    +0.000 A 
ATOM     15  C   UNL     1      33.972  58.098  57.781  0.00  0.00    +0.000 A 
ATOM     16  C   UNL     1      34.575  57.802  58.966  0.00  0.00    +0.000 A 
ATOM     17  C   UNL     1      35.906  57.822  59.181  0.00  0.00    +0.000 A 
ATOM     18  C   UNL     1      36.706  58.181  58.075  0.00  0.00    +0.000 A 
ATOM     19  C   UNL     1      36.159  58.488  56.862  0.00  0.00    +0.000 A 
ATOM     20  N   UNL     1      36.976  58.847  55.758  0.00  0.00    +0.000 NA
BRANCH  14  22
ATOM     21  C   UNL     1      33.345  59.802  55.255  0.00  0.00    +0.000 C 
ATOM     22  O   UNL     1      34.234  58.755  55.499  0.00  0.00    +0.000 OA
ENDBRANCH  14  22
ENDBRANCH   1  17
TORSDOF 4
ENDMDL
MODEL 8
REMARK VINA RESULT:      -6.2     13.429     16.334
REMARK  Name = 
REMARK  4 active torsions:
REMARK  status: ('A' for Active; 'I' for Inactive)
REMARK    1  A    between atoms: O_2  and  C_3
REMARK    2  A    between atoms: C_6  and  C_7
REMARK    3  A    between atoms: C_8  and  C_9
REMARK    4  A    between atoms: C_11  and  O_12
REMARK                            x       y       z     vdW  Elec       q    Type
REMARK                         _______ _______ _______ _____ _____    ______ ____
ROOT
ATOM      1  C   UNL     1      36.656  57.575  60.522  0.00  0.00    +0.000 C 
ATOM      2  C   UNL     1      36.463  58.686  59.985  0.00  0.00    +0.000 C 
ENDROOT
BRANCH   2   3
ATOM      3  C   UNL     1      35.919  59.017  58.706  0.00  0.00    +0.000 A 
ATOM      4  C   UNL     1      36.908  59.139  57.709  0.00  0.00    +0.000 A 
ATOM      5  C   UNL     1      36.580  59.452  56.420  0.00  0.00    +0.000 A 
ATOM      6  C   UNL     1      35.260  59.653  56.082  0.00  0.00    +0.000 A 
ATOM      7  C   UNL     1      34.249  59.542  57.040  0.00  0.00    +0.000 A 
ATOM      8  C   UNL     1      34.643  59.227  58.314  0.00  0.00    +0.000 A 
ATOM      9  O   UNL     1      33.040  59.798  56.408  0.00  0.00    +0.000 OA
ATOM     10  C   UNL     1      33.284  59.670  55.020  0.00  0.00    +0.000 C 
ATOM     11  O   UNL     1      34.680  59.975  54.862  0.00  0.00    +0.000 OA
BRANCH   5  12
ATOM     12  O   UNL     1      37.543  59.574  55.430  0.00  0.00    +0.000 OA
ATOM     13  C   UNL     1      37.824  58.598  54.472  0.00  0.00    +0.000 C 
ENDBRANCH   5  12
ENDBRANCH   2   3
BRANCH   1  17
ATOM     14  C   UNL     1      35.320  53.953  58.870  0.00  0.00    +0.000 A 
ATOM     15  C   UNL     1      36.569  54.412  58.461  0.00  0.00    +0.000 A 
ATOM     16  C   UNL     1      37.012  55.586  58.991  0.00  0.00    +0.000 A 
ATOM     17  C   UNL     1      36.333  56.337  59.880  0.00  0.00    +0.000 A 
ATOM     18  C   UNL     1      35.071  55.842  60.273  0.00  0.00    +0.000 A 
ATOM     19  C   UNL     1      34.572  54.671  59.776  0.00  0.00    +0.000 A 
ATOM     20  N   UNL     1      33.301  54.186  60.179  0.00  0.00    +0.000 NA
BRANCH  14  22
ATOM     21  C   UNL     1      35.496  51.553  58.365  0.00  0.00    +0.000 C 
ATOM     22  O   UNL     1      34.828  52.778  58.367  0.00  0.00    +0.000 OA
ENDBRANCH  14  22
ENDBRANCH   1  17
TORSDOF 4
ENDMDL
MODEL 9
REMARK VINA RESULT:      -6.2     14.011     15.981
REMARK  Name = 
REMARK  4 active torsions:
REMARK  status: ('A' for Active; 'I' for Inactive)
REMARK    1  A    between atoms: O_2  and  C_3
REMARK    2  A    between atoms: C_6  and  C_7
REMARK    3  A    between atoms: C_8  and  C_9
REMARK    4  A    between atoms: C_11  and  O_12
REMARK                            x       y       z     vdW  Elec       q    Type
REMARK                         _______ _______ _______ _____ _____    ______ ____
ROOT
ATOM      1  C   UNL     1      35.282  55.719  59.761  0.00  0.00    +0.000 C 
ATOM      2  C   UNL     1      35.950  54.713  60.081  0.00  0.00    +0.000 C 
ENDROOT
BRANCH   2   3
ATOM      3  C   UNL     1      37.312  54.379  59.809  0.00  0.00    +0.000 A 
ATOM      4  C   UNL     1      38.194  54.833  60.810  0.00  0.00    +0.000 A 
ATOM      5  C   UNL     1      39.540  54.608  60.725  0.00  0.00    +0.000 A 
ATOM      6  C   UNL     1      40.049  53.925  59.642  0.00  0.00    +0.000 A 
ATOM      7  C   UNL     1      39.208  53.458  58.628  0.00  0.00    +0.000 A 
ATOM      8  C   UNL     1      37.871  53.716  58.772  0.00  0.00    +0.000 A 
ATOM      9  O   UNL     1      40.002  52.818  57.685  0.00  0.00    +0.000 OA
ATOM     10  C   UNL     1      41.239  52.558  58.320  0.00  0.00    +0.000 C 
ATOM     11  O   UNL     1      41.357  53.575  59.330  0.00  0.00    +0.000 OA
BRANCH   5  12
ATOM     12  O   UNL     1      40.417  55.048  61.702  0.00  0.00    +0.000 OA
ATOM     13  C   UNL     1      40.790  54.309  62.826  0.00  0.00    +0.000 C 
ENDBRANCH   5  12
ENDBRANCH   2   3
BRANCH   1  17
ATOM     14  C   UNL     1      36.765  58.657  57.154  0.00  0.00    +0.000 A 
ATOM     15  C   UNL     1      36.873  58.909  58.518  0.00  0.00    +0.000 A 
ATOM     16  C   UNL     1      36.395  57.962  59.373  0.00  0.00    +0.000 A 
ATOM     17  C   UNL     1      35.825  56.800  58.997  0.00  0.00    +0.000 A 
ATOM     18  C   UNL     1      35.731  56.577  57.607  0.00  0.00    +0.000 A 
ATOM     19  C   UNL     1      36.192  57.490  56.700  0.00  0.00    +0.000 A 
ATOM     20  N   UNL     1      36.091  57.252  55.304  0.00  0.00    +0.000 NA
BRANCH  14  22
ATOM     21  C   UNL     1      38.403  60.320  56.381  0.00  0.00    +0.000 C 
ATOM     22  O   UNL     1      37.230  59.576  56.251  0.00  0.00    +0.000 OA
ENDBRANCH  14  22
ENDBRANCH   1  17
TORSDOF 4
ENDMDL
MODEL 10
REMARK VINA RESULT:      -6.0     14.506     16.970
REMARK  Name = 
REMARK  4 active torsions:
REMARK  status: ('A' for Active; 'I' for Inactive)
REMARK    1  A    between atoms: O_2  and  C_3
REMARK    2  A    between atoms: C_6  and  C_7
REMARK    3  A    between atoms: C_8  and  C_9
REMARK    4  A    between atoms: C_11  and  O_12
REMARK                            x       y       z     vdW  Elec       q    Type
REMARK                         _______ _______ _______ _____ _____    ______ ____
ROOT
ATOM      1  C   UNL     1      35.754  55.233  60.034  0.00  0.00    +0.000 C 
ATOM      2  C   UNL     1      35.244  56.155  59.363  0.00  0.00    +0.000 C 
ENDROOT
BRANCH   2   3
ATOM      3  C   UNL     1      35.788  56.941  58.302  0.00  0.00    +0.000 A 
ATOM      4  C   UNL     1      36.282  58.185  58.745  0.00  0.00    +0.000 A 
ATOM      5  C   UNL     1      36.841  59.077  57.873  0.00  0.00    +0.000 A 
ATOM      6  C   UNL     1      36.927  58.760  56.535  0.00  0.00    +0.000 A 
ATOM      7  C   UNL     1      36.449  57.538  56.056  0.00  0.00    +0.000 A 
ATOM      8  C   UNL     1      35.900  56.688  56.979  0.00  0.00    +0.000 A 
ATOM      9  O   UNL     1      36.671  57.508  54.685  0.00  0.00    +0.000 OA
ATOM     10  C   UNL     1      37.623  58.519  54.416  0.00  0.00    +0.000 C 
ATOM     11  O   UNL     1      37.443  59.484  55.468  0.00  0.00    +0.000 OA
BRANCH   5  12
ATOM     12  O   UNL     1      37.331  60.302  58.296  0.00  0.00    +0.000 OA
ATOM     13  C   UNL     1      37.013  60.907  59.513  0.00  0.00    +0.000 C 
ENDBRANCH   5  12
ENDBRANCH   2   3
BRANCH   1  17
ATOM     14  C   UNL     1      39.787  54.087  59.813  0.00  0.00    +0.000 A 
ATOM     15  C   UNL     1      38.956  53.678  58.774  0.00  0.00    +0.000 A 
ATOM     16  C   UNL     1      37.646  54.045  58.836  0.00  0.00    +0.000 A 
ATOM     17  C   UNL     1      37.093  54.772  59.827  0.00  0.00    +0.000 A 
ATOM     18  C   UNL     1      37.965  55.169  60.864  0.00  0.00    +0.000 A 
ATOM     19  C   UNL     1      39.289  54.832  60.858  0.00  0.00    +0.000 A 
ATOM     20  N   UNL     1      40.153  55.238  61.908  0.00  0.00    +0.000 NA
BRANCH  14  22
ATOM     21  C   UNL     1      41.744  52.974  58.822  0.00  0.00    +0.000 C 
ATOM     22  O   UNL     1      41.114  53.745  59.799  0.00  0.00    +0.000 OA
ENDBRANCH  14  22
ENDBRANCH   1  17
TORSDOF 4
ENDMDL
