MODEL 1
REMARK VINA RESULT:      -6.6      0.000      0.000
REMARK  Name = 
REMARK  6 active torsions:
REMARK  status: ('A' for Active; 'I' for Inactive)
REMARK    1  A    between atoms: O_2  and  C_3
REMARK    2  A    between atoms: C_6  and  C_7
REMARK    3  A    between atoms: C_8  and  C_9
REMARK    4  A    between atoms: C_11  and  O_12
REMARK    5  A    between atoms: C_14  and  O_15
REMARK    6  A    between atoms: C_17  and  O_18
REMARK                            x       y       z     vdW  Elec       q    Type
REMARK                         _______ _______ _______ _____ _____    ______ ____
ROOT
ATOM      1  C   UNL     1      29.817  44.805  62.269  0.00  0.00    +0.000 C 
ATOM      2  C   UNL     1      29.673  43.587  61.793  0.00  0.00    +0.000 C 
ATOM      3  C   UNL     1      31.027  43.063  61.437  0.00  0.00    +0.000 C 
ATOM      4  O   UNL     1      31.354  41.881  61.326  0.00  0.00    +0.000 OA
ATOM      5  C   UNL     1      31.862  44.265  61.256  0.00  0.00    +0.000 C 
ATOM      6  C   UNL     1      31.267  45.223  62.294  0.00  0.00    +0.000 C 
ENDROOT
BRANCH   1  10
ATOM      7  C   UNL     1      26.632  47.380  63.588  0.00  0.00    +0.000 A 
ATOM      8  C   UNL     1      27.007  47.338  62.247  0.00  0.00    +0.000 A 
ATOM      9  C   UNL     1      28.040  46.518  61.848  0.00  0.00    +0.000 A 
ATOM     10  C   UNL     1      28.749  45.704  62.741  0.00  0.00    +0.000 A 
ATOM     11  C   UNL     1      28.353  45.769  64.052  0.00  0.00    +0.000 A 
ATOM     12  C   UNL     1      27.311  46.590  64.490  0.00  0.00    +0.000 A 
BRANCH   7  14
ATOM     13  C   UNL     1      25.306  48.604  65.272  0.00  0.00    +0.000 C 
ATOM     14  O   UNL     1      25.585  48.222  63.932  0.00  0.00    +0.000 OA
ENDBRANCH   7  14
ENDBRANCH   1  10
BRANCH   2  15
ATOM     15  C   UNL     1      28.444  42.824  61.612  0.00  0.00    +0.000 A 
ATOM     16  C   UNL     1      28.137  41.882  62.606  0.00  0.00    +0.000 A 
ATOM     17  C   UNL     1      26.996  41.122  62.520  0.00  0.00    +0.000 A 
ATOM     18  C   UNL     1      26.107  41.236  61.481  0.00  0.00    +0.000 A 
ATOM     19  C   UNL     1      26.407  42.169  60.495  0.00  0.00    +0.000 A 
ATOM     20  C   UNL     1      27.558  42.934  60.582  0.00  0.00    +0.000 A 
BRANCH  17  21
ATOM     21  O   UNL     1      26.746  40.203  63.536  0.00  0.00    +0.000 OA
ATOM     22  C   UNL     1      27.807  39.673  64.319  0.00  0.00    +0.000 C 
ENDBRANCH  17  21
BRANCH  18  23
ATOM     23  O   UNL     1      24.947  40.467  61.387  0.00  0.00    +0.000 OA
ATOM     24  C   UNL     1      25.045  39.207  60.719  0.00  0.00    +0.000 C 
ENDBRANCH  18  23
BRANCH  19  25
ATOM     25  O   UNL     1      25.525  42.320  59.415  0.00  0.00    +0.000 OA
ATOM     26  C   UNL     1      26.106  42.711  58.171  0.00  0.00    +0.000 C 
ENDBRANCH  19  25
ENDBRANCH   2  15
TORSDOF 6
ENDMDL
MODEL 2
REMARK VINA RESULT:      -6.5      0.346      2.545
REMARK  Name = 
REMARK  6 active torsions:
REMARK  status: ('A' for Active; 'I' for Inactive)
REMARK    1  A    between atoms: O_2  and  C_3
REMARK    2  A    between atoms: C_6  and  C_7
REMARK    3  A    between atoms: C_8  and  C_9
REMARK    4  A    between atoms: C_11  and  O_12
REMARK    5  A    between atoms: C_14  and  O_15
REMARK    6  A    between atoms: C_17  and  O_18
REMARK                            x       y       z     vdW  Elec       q    Type
REMARK                         _______ _______ _______ _____ _____    ______ ____
ROOT
ATOM      1  C   UNL     1      29.913  44.830  62.259  0.00  0.00    +0.000 C 
ATOM      2  C   UNL     1      29.861  43.570  61.883  0.00  0.00    +0.000 C 
ATOM      3  C   UNL     1      31.230  43.156  61.450  0.00  0.00    +0.000 C 
ATOM      4  O   UNL     1      31.669  42.007  61.395  0.00  0.00    +0.000 OA
ATOM      5  C   UNL     1      31.918  44.417  61.114  0.00  0.00    +0.000 C 
ATOM      6  C   UNL     1      31.310  45.390  62.129  0.00  0.00    +0.000 C 
ENDROOT
BRANCH   1  10
ATOM      7  C   UNL     1      26.591  47.178  63.660  0.00  0.00    +0.000 A 
ATOM      8  C   UNL     1      26.890  47.104  62.301  0.00  0.00    +0.000 A 
ATOM      9  C   UNL     1      27.968  46.359  61.875  0.00  0.00    +0.000 A 
ATOM     10  C   UNL     1      28.798  45.654  62.757  0.00  0.00    +0.000 A 
ATOM     11  C   UNL     1      28.474  45.748  64.086  0.00  0.00    +0.000 A 
ATOM     12  C   UNL     1      27.390  46.495  64.551  0.00  0.00    +0.000 A 
BRANCH   7  14
ATOM     13  C   UNL     1      25.441  48.685  65.240  0.00  0.00    +0.000 C 
ATOM     14  O   UNL     1      25.493  47.941  64.032  0.00  0.00    +0.000 OA
ENDBRANCH   7  14
ENDBRANCH   1  10
BRANCH   2  15
ATOM     15  C   UNL     1      28.709  42.679  61.863  0.00  0.00    +0.000 A 
ATOM     16  C   UNL     1      27.901  42.720  60.716  0.00  0.00    +0.000 A 
ATOM     17  C   UNL     1      26.797  41.910  60.609  0.00  0.00    +0.000 A 
ATOM     18  C   UNL     1      26.426  41.030  61.595  0.00  0.00    +0.000 A 
ATOM     19  C   UNL     1      27.224  40.985  62.732  0.00  0.00    +0.000 A 
ATOM     20  C   UNL     1      28.336  41.803  62.840  0.00  0.00    +0.000 A 
BRANCH  17  21
ATOM     21  O   UNL     1      26.034  41.997  59.447  0.00  0.00    +0.000 OA
ATOM     22  C   UNL     1      26.503  42.722  58.317  0.00  0.00    +0.000 C 
ENDBRANCH  17  21
BRANCH  18  23
ATOM     23  O   UNL     1      25.305  40.206  61.492  0.00  0.00    +0.000 OA
ATOM     24  C   UNL     1      25.485  38.923  60.888  0.00  0.00    +0.000 C 
ENDBRANCH  18  23
BRANCH  19  25
ATOM     25  O   UNL     1      26.882  40.099  63.764  0.00  0.00    +0.000 OA
ATOM     26  C   UNL     1      27.844  39.094  64.082  0.00  0.00    +0.000 C 
ENDBRANCH  19  25
ENDBRANCH   2  15
TORSDOF 6
ENDMDL
MODEL 3
REMARK VINA RESULT:      -6.2     13.002     16.758
REMARK  Name = 
REMARK  6 active torsions:
REMARK  status: ('A' for Active; 'I' for Inactive)
REMARK    1  A    between atoms: O_2  and  C_3
REMARK    2  A    between atoms: C_6  and  C_7
REMARK    3  A    between atoms: C_8  and  C_9
REMARK    4  A    between atoms: C_11  and  O_12
REMARK    5  A    between atoms: C_14  and  O_15
REMARK    6  A    between atoms: C_17  and  O_18
REMARK                            x       y       z     vdW  Elec       q    Type
REMARK                         _______ _______ _______ _____ _____    ______ ____
ROOT
ATOM      1  C   UNL     1      36.625  53.160  59.772  0.00  0.00    +0.000 C 
ATOM      2  C   UNL     1      35.785  54.166  59.648  0.00  0.00    +0.000 C 
ATOM      3  C   UNL     1      34.412  53.668  59.965  0.00  0.00    +0.000 C 
ATOM      4  O   UNL     1      33.447  54.344  60.324  0.00  0.00    +0.000 OA
ATOM      5  C   UNL     1      34.481  52.209  59.755  0.00  0.00    +0.000 C 
ATOM      6  C   UNL     1      35.916  51.894  60.190  0.00  0.00    +0.000 C 
ENDROOT
BRANCH   1  10
ATOM      7  C   UNL     1      40.863  53.304  59.048  0.00  0.00    +0.000 A 
ATOM      8  C   UNL     1      39.999  52.741  58.112  0.00  0.00    +0.000 A 
ATOM      9  C   UNL     1      38.646  52.691  58.370  0.00  0.00    +0.000 A 
ATOM     10  C   UNL     1      38.081  53.189  59.552  0.00  0.00    +0.000 A 
ATOM     11  C   UNL     1      38.961  53.737  60.450  0.00  0.00    +0.000 A 
ATOM     12  C   UNL     1      40.337  53.802  60.220  0.00  0.00    +0.000 A 
BRANCH   7  14
ATOM     13  C   UNL     1      43.005  52.154  58.617  0.00  0.00    +0.000 C 
ATOM     14  O   UNL     1      42.215  53.329  58.734  0.00  0.00    +0.000 OA
ENDBRANCH   7  14
ENDBRANCH   1  10
BRANCH   2  15
ATOM     15  C   UNL     1      36.072  55.543  59.269  0.00  0.00    +0.000 A 
ATOM     16  C   UNL     1      35.837  55.889  57.929  0.00  0.00    +0.000 A 
ATOM     17  C   UNL     1      36.074  57.167  57.486  0.00  0.00    +0.000 A 
ATOM     18  C   UNL     1      36.544  58.161  58.307  0.00  0.00    +0.000 A 
ATOM     19  C   UNL     1      36.777  57.823  59.635  0.00  0.00    +0.000 A 
ATOM     20  C   UNL     1      36.538  56.534  60.081  0.00  0.00    +0.000 A 
BRANCH  17  21
ATOM     21  O   UNL     1      35.824  57.449  56.145  0.00  0.00    +0.000 OA
ATOM     22  C   UNL     1      36.805  57.191  55.148  0.00  0.00    +0.000 C 
ENDBRANCH  17  21
BRANCH  18  23
ATOM     23  O   UNL     1      36.789  59.460  57.862  0.00  0.00    +0.000 OA
ATOM     24  C   UNL     1      35.704  60.391  57.920  0.00  0.00    +0.000 C 
ENDBRANCH  18  23
BRANCH  19  25
ATOM     25  O   UNL     1      37.256  58.808  60.511  0.00  0.00    +0.000 OA
ATOM     26  C   UNL     1      36.719  58.797  61.833  0.00  0.00    +0.000 C 
ENDBRANCH  19  25
ENDBRANCH   2  15
TORSDOF 6
ENDMDL
MODEL 4
REMARK VINA RESULT:      -6.2     13.020     16.661
REMARK  Name = 
REMARK  6 active torsions:
REMARK  status: ('A' for Active; 'I' for Inactive)
REMARK    1  A    between atoms: O_2  and  C_3
REMARK    2  A    between atoms: C_6  and  C_7
REMARK    3  A    between atoms: C_8  and  C_9
REMARK    4  A    between atoms: C_11  and  O_12
REMARK    5  A    between atoms: C_14  and  O_15
REMARK    6  A    between atoms: C_17  and  O_18
REMARK                            x       y       z     vdW  Elec       q    Type
REMARK                         _______ _______ _______ _____ _____    ______ ____
ROOT
ATOM      1  C   UNL     1      36.595  53.225  59.827  0.00  0.00    +0.000 C 
ATOM      2  C   UNL     1      35.758  54.230  59.680  0.00  0.00    +0.000 C 
ATOM      3  C   UNL     1      34.383  53.741  60.003  0.00  0.00    +0.000 C 
ATOM      4  O   UNL     1      33.418  54.426  60.344  0.00  0.00    +0.000 OA
ATOM      5  C   UNL     1      34.449  52.278  59.823  0.00  0.00    +0.000 C 
ATOM      6  C   UNL     1      35.882  51.970  60.269  0.00  0.00    +0.000 C 
ENDROOT
BRANCH   1  10
ATOM      7  C   UNL     1      40.836  53.341  59.113  0.00  0.00    +0.000 A 
ATOM      8  C   UNL     1      39.979  52.704  58.218  0.00  0.00    +0.000 A 
ATOM      9  C   UNL     1      38.625  52.665  58.474  0.00  0.00    +0.000 A 
ATOM     10  C   UNL     1      38.052  53.247  59.612  0.00  0.00    +0.000 A 
ATOM     11  C   UNL     1      38.925  53.866  60.470  0.00  0.00    +0.000 A 
ATOM     12  C   UNL     1      40.301  53.923  60.241  0.00  0.00    +0.000 A 
BRANCH   7  14
ATOM     13  C   UNL     1      42.932  52.170  58.543  0.00  0.00    +0.000 C 
ATOM     14  O   UNL     1      42.189  53.352  58.803  0.00  0.00    +0.000 OA
ENDBRANCH   7  14
ENDBRANCH   1  10
BRANCH   2  15
ATOM     15  C   UNL     1      36.048  55.599  59.274  0.00  0.00    +0.000 A 
ATOM     16  C   UNL     1      36.435  56.487  60.290  0.00  0.00    +0.000 A 
ATOM     17  C   UNL     1      36.733  57.796  59.997  0.00  0.00    +0.000 A 
ATOM     18  C   UNL     1      36.673  58.302  58.723  0.00  0.00    +0.000 A 
ATOM     19  C   UNL     1      36.292  57.425  57.714  0.00  0.00    +0.000 A 
ATOM     20  C   UNL     1      35.990  56.106  58.010  0.00  0.00    +0.000 A 
BRANCH  17  21
ATOM     21  O   UNL     1      37.109  58.630  61.047  0.00  0.00    +0.000 OA
ATOM     22  C   UNL     1      38.245  58.330  61.848  0.00  0.00    +0.000 C 
ENDBRANCH  17  21
BRANCH  18  23
ATOM     23  O   UNL     1      36.973  59.630  58.420  0.00  0.00    +0.000 OA
ATOM     24  C   UNL     1      35.910  60.582  58.504  0.00  0.00    +0.000 C 
ENDBRANCH  18  23
BRANCH  19  25
ATOM     25  O   UNL     1      36.218  57.900  56.396  0.00  0.00    +0.000 OA
ATOM     26  C   UNL     1      36.454  56.943  55.364  0.00  0.00    +0.000 C 
ENDBRANCH  19  25
ENDBRANCH   2  15
TORSDOF 6
ENDMDL
MODEL 5
REMARK VINA RESULT:      -6.0     15.064     17.828
REMARK  Name = 
REMARK  6 active torsions:
REMARK  status: ('A' for Active; 'I' for Inactive)
REMARK    1  A    between atoms: O_2  and  C_3
REMARK    2  A    between atoms: C_6  and  C_7
REMARK    3  A    between atoms: C_8  and  C_9
REMARK    4  A    between atoms: C_11  and  O_12
REMARK    5  A    between atoms: C_14  and  O_15
REMARK    6  A    between atoms: C_17  and  O_18
REMARK                            x       y       z     vdW  Elec       q    Type
REMARK                         _______ _______ _______ _____ _____    ______ ____
ROOT
ATOM      1  C   UNL     1      34.740  59.377  54.867  0.00  0.00    +0.000 C 
ATOM      2  C   UNL     1      35.776  58.749  55.381  0.00  0.00    +0.000 C 
ATOM      3  C   UNL     1      36.823  58.633  54.321  0.00  0.00    +0.000 C 
ATOM      4  O   UNL     1      38.031  58.463  54.493  0.00  0.00    +0.000 OA
ATOM      5  C   UNL     1      36.090  58.769  53.048  0.00  0.00    +0.000 C 
ATOM      6  C   UNL     1      34.982  59.757  53.426  0.00  0.00    +0.000 C 
ENDROOT
BRANCH   1  10
ATOM      7  C   UNL     1      31.006  60.269  56.809  0.00  0.00    +0.000 A 
ATOM      8  C   UNL     1      31.129  60.359  55.424  0.00  0.00    +0.000 A 
ATOM      9  C   UNL     1      32.339  60.085  54.824  0.00  0.00    +0.000 A 
ATOM     10  C   UNL     1      33.477  59.709  55.549  0.00  0.00    +0.000 A 
ATOM     11  C   UNL     1      33.319  59.628  56.909  0.00  0.00    +0.000 A 
ATOM     12  C   UNL     1      32.108  59.901  57.549  0.00  0.00    +0.000 A 
BRANCH   7  14
ATOM     13  C   UNL     1      28.673  59.647  57.320  0.00  0.00    +0.000 C 
ATOM     14  O   UNL     1      29.764  60.554  57.359  0.00  0.00    +0.000 OA
ENDBRANCH   7  14
ENDBRANCH   1  10
BRANCH   2  15
ATOM     15  C   UNL     1      35.940  58.227  56.732  0.00  0.00    +0.000 A 
ATOM     16  C   UNL     1      36.573  59.070  57.659  0.00  0.00    +0.000 A 
ATOM     17  C   UNL     1      36.764  58.661  58.957  0.00  0.00    +0.000 A 
ATOM     18  C   UNL     1      36.357  57.434  59.414  0.00  0.00    +0.000 A 
ATOM     19  C   UNL     1      35.729  56.597  58.499  0.00  0.00    +0.000 A 
ATOM     20  C   UNL     1      35.537  57.008  57.191  0.00  0.00    +0.000 A 
BRANCH  17  21
ATOM     21  O   UNL     1      37.400  59.541  59.830  0.00  0.00    +0.000 OA
ATOM     22  C   UNL     1      36.670  60.561  60.500  0.00  0.00    +0.000 C 
ENDBRANCH  17  21
BRANCH  18  23
ATOM     23  O   UNL     1      36.550  57.013  60.731  0.00  0.00    +0.000 OA
ATOM     24  C   UNL     1      37.787  56.366  61.040  0.00  0.00    +0.000 C 
ENDBRANCH  18  23
BRANCH  19  25
ATOM     25  O   UNL     1      35.296  55.332  58.925  0.00  0.00    +0.000 OA
ATOM     26  C   UNL     1      36.040  54.212  58.447  0.00  0.00    +0.000 C 
ENDBRANCH  19  25
ENDBRANCH   2  15
TORSDOF 6
ENDMDL
MODEL 6
REMARK VINA RESULT:      -6.0     10.949     13.782
REMARK  Name = 
REMARK  6 active torsions:
REMARK  status: ('A' for Active; 'I' for Inactive)
REMARK    1  A    between atoms: O_2  and  C_3
REMARK    2  A    between atoms: C_6  and  C_7
REMARK    3  A    between atoms: C_8  and  C_9
REMARK    4  A    between atoms: C_11  and  O_12
REMARK    5  A    between atoms: C_14  and  O_15
REMARK    6  A    between atoms: C_17  and  O_18
REMARK                            x       y       z     vdW  Elec       q    Type
REMARK                         _______ _______ _______ _____ _____    ______ ____
ROOT
ATOM      1  C   UNL     1      36.462  54.276  59.709  0.00  0.00    +0.000 C 
ATOM      2  C   UNL     1      35.566  53.553  60.347  0.00  0.00    +0.000 C 
ATOM      3  C   UNL     1      34.237  54.221  60.196  0.00  0.00    +0.000 C 
ATOM      4  O   UNL     1      33.130  53.693  60.310  0.00  0.00    +0.000 OA
ATOM      5  C   UNL     1      34.553  55.627  59.884  0.00  0.00    +0.000 C 
ATOM      6  C   UNL     1      35.837  55.488  59.060  0.00  0.00    +0.000 C 
ENDROOT
BRANCH   1  10
ATOM      7  C   UNL     1      40.676  53.519  59.286  0.00  0.00    +0.000 A 
ATOM      8  C   UNL     1      39.765  53.022  58.356  0.00  0.00    +0.000 A 
ATOM      9  C   UNL     1      38.418  53.263  58.518  0.00  0.00    +0.000 A 
ATOM     10  C   UNL     1      37.904  53.999  59.594  0.00  0.00    +0.000 A 
ATOM     11  C   UNL     1      38.829  54.473  60.490  0.00  0.00    +0.000 A 
ATOM     12  C   UNL     1      40.200  54.246  60.355  0.00  0.00    +0.000 A 
BRANCH   7  14
ATOM     13  C   UNL     1      42.474  52.130  58.322  0.00  0.00    +0.000 C 
ATOM     14  O   UNL     1      42.020  53.247  59.071  0.00  0.00    +0.000 OA
ENDBRANCH   7  14
ENDBRANCH   1  10
BRANCH   2  15
ATOM     15  C   UNL     1      35.763  52.316  61.091  0.00  0.00    +0.000 A 
ATOM     16  C   UNL     1      35.474  52.356  62.464  0.00  0.00    +0.000 A 
ATOM     17  C   UNL     1      35.626  51.233  63.242  0.00  0.00    +0.000 A 
ATOM     18  C   UNL     1      36.059  50.034  62.735  0.00  0.00    +0.000 A 
ATOM     19  C   UNL     1      36.345  49.991  61.375  0.00  0.00    +0.000 A 
ATOM     20  C   UNL     1      36.192  51.122  60.592  0.00  0.00    +0.000 A 
BRANCH  17  21
ATOM     21  O   UNL     1      35.326  51.334  64.598  0.00  0.00    +0.000 OA
ATOM     22  C   UNL     1      36.283  51.835  65.523  0.00  0.00    +0.000 C 
ENDBRANCH  17  21
BRANCH  18  23
ATOM     23  O   UNL     1      36.217  48.892  63.520  0.00  0.00    +0.000 OA
ATOM     24  C   UNL     1      37.481  48.701  64.160  0.00  0.00    +0.000 C 
ENDBRANCH  18  23
BRANCH  19  25
ATOM     25  O   UNL     1      36.789  48.784  60.815  0.00  0.00    +0.000 OA
ATOM     26  C   UNL     1      38.182  48.699  60.514  0.00  0.00    +0.000 C 
ENDBRANCH  19  25
ENDBRANCH   2  15
TORSDOF 6
ENDMDL
MODEL 7
REMARK VINA RESULT:      -6.0     15.094     17.845
REMARK  Name = 
REMARK  6 active torsions:
REMARK  status: ('A' for Active; 'I' for Inactive)
REMARK    1  A    between atoms: O_2  and  C_3
REMARK    2  A    between atoms: C_6  and  C_7
REMARK    3  A    between atoms: C_8  and  C_9
REMARK    4  A    between atoms: C_11  and  O_12
REMARK    5  A    between atoms: C_14  and  O_15
REMARK    6  A    between atoms: C_17  and  O_18
REMARK                            x       y       z     vdW  Elec       q    Type
REMARK                         _______ _______ _______ _____ _____    ______ ____
ROOT
ATOM      1  C   UNL     1      34.762  59.385  54.900  0.00  0.00    +0.000 C 
ATOM      2  C   UNL     1      35.834  58.836  55.429  0.00  0.00    +0.000 C 
ATOM      3  C   UNL     1      36.853  58.670  54.349  0.00  0.00    +0.000 C 
ATOM      4  O   UNL     1      38.071  58.556  54.497  0.00  0.00    +0.000 OA
ATOM      5  C   UNL     1      36.079  58.676  53.094  0.00  0.00    +0.000 C 
ATOM      6  C   UNL     1      34.947  59.653  53.426  0.00  0.00    +0.000 C 
ENDROOT
BRANCH   1  10
ATOM      7  C   UNL     1      31.052  60.310  56.874  0.00  0.00    +0.000 A 
ATOM      8  C   UNL     1      31.165  60.400  55.488  0.00  0.00    +0.000 A 
ATOM      9  C   UNL     1      32.367  60.114  54.877  0.00  0.00    +0.000 A 
ATOM     10  C   UNL     1      33.507  59.727  55.593  0.00  0.00    +0.000 A 
ATOM     11  C   UNL     1      33.360  59.648  56.954  0.00  0.00    +0.000 A 
ATOM     12  C   UNL     1      32.158  59.932  57.605  0.00  0.00    +0.000 A 
BRANCH   7  14
ATOM     13  C   UNL     1      28.670  59.792  57.255  0.00  0.00    +0.000 C 
ATOM     14  O   UNL     1      29.819  60.607  57.435  0.00  0.00    +0.000 OA
ENDBRANCH   7  14
ENDBRANCH   1  10
BRANCH   2  15
ATOM     15  C   UNL     1      36.056  58.432  56.812  0.00  0.00    +0.000 A 
ATOM     16  C   UNL     1      35.644  57.136  57.163  0.00  0.00    +0.000 A 
ATOM     17  C   UNL     1      35.820  56.671  58.443  0.00  0.00    +0.000 A 
ATOM     18  C   UNL     1      36.395  57.426  59.434  0.00  0.00    +0.000 A 
ATOM     19  C   UNL     1      36.805  58.709  59.090  0.00  0.00    +0.000 A 
ATOM     20  C   UNL     1      36.627  59.178  57.799  0.00  0.00    +0.000 A 
BRANCH  17  21
ATOM     21  O   UNL     1      35.390  55.378  58.731  0.00  0.00    +0.000 OA
ATOM     22  C   UNL     1      36.195  54.251  58.408  0.00  0.00    +0.000 C 
ENDBRANCH  17  21
BRANCH  18  23
ATOM     23  O   UNL     1      36.575  56.959  60.736  0.00  0.00    +0.000 OA
ATOM     24  C   UNL     1      37.812  56.308  61.037  0.00  0.00    +0.000 C 
ENDBRANCH  18  23
BRANCH  19  25
ATOM     25  O   UNL     1      37.400  59.516  60.072  0.00  0.00    +0.000 OA
ATOM     26  C   UNL     1      36.571  60.522  60.652  0.00  0.00    +0.000 C 
ENDBRANCH  19  25
ENDBRANCH   2  15
TORSDOF 6
ENDMDL
MODEL 8
REMARK VINA RESULT:      -5.9     13.869     17.031
REMARK  Name = 
REMARK  6 active torsions:
REMARK  status: ('A' for Active; 'I' for Inactive)
REMARK    1  A    between atoms: O_2  and  C_3
REMARK    2  A    between atoms: C_6  and  C_7
REMARK    3  A    between atoms: C_8  and  C_9
REMARK    4  A    between atoms: C_11  and  O_12
REMARK    5  A    between atoms: C_14  and  O_15
REMARK    6  A    between atoms: C_17  and  O_18
REMARK                            x       y       z     vdW  Elec       q    Type
REMARK                         _______ _______ _______ _____ _____    ______ ____
ROOT
ATOM      1  C   UNL     1      36.713  56.851  60.179  0.00  0.00    +0.000 C 
ATOM      2  C   UNL     1      36.635  58.002  59.546  0.00  0.00    +0.000 C 
ATOM      3  C   UNL     1      37.522  58.980  60.245  0.00  0.00    +0.000 C 
ATOM      4  O   UNL     1      38.007  60.007  59.769  0.00  0.00    +0.000 OA
ATOM      5  C   UNL     1      37.679  58.440  61.609  0.00  0.00    +0.000 C 
ATOM      6  C   UNL     1      37.657  56.929  61.355  0.00  0.00    +0.000 C 
ENDROOT
BRANCH   1  10
ATOM      7  C   UNL     1      34.713  53.158  59.248  0.00  0.00    +0.000 A 
ATOM      8  C   UNL     1      36.012  53.397  58.805  0.00  0.00    +0.000 A 
ATOM      9  C   UNL     1      36.629  54.593  59.101  0.00  0.00    +0.000 A 
ATOM     10  C   UNL     1      36.004  55.604  59.843  0.00  0.00    +0.000 A 
ATOM     11  C   UNL     1      34.727  55.335  60.263  0.00  0.00    +0.000 A 
ATOM     12  C   UNL     1      34.073  54.134  59.979  0.00  0.00    +0.000 A 
BRANCH   7  14
ATOM     13  C   UNL     1      34.511  50.717  59.552  0.00  0.00    +0.000 C 
ATOM     14  O   UNL     1      34.143  51.935  58.922  0.00  0.00    +0.000 OA
ENDBRANCH   7  14
ENDBRANCH   1  10
BRANCH   2  15
ATOM     15  C   UNL     1      35.843  58.335  58.368  0.00  0.00    +0.000 A 
ATOM     16  C   UNL     1      36.369  57.944  57.126  0.00  0.00    +0.000 A 
ATOM     17  C   UNL     1      35.686  58.213  55.964  0.00  0.00    +0.000 A 
ATOM     18  C   UNL     1      34.479  58.864  55.948  0.00  0.00    +0.000 A 
ATOM     19  C   UNL     1      33.955  59.252  57.176  0.00  0.00    +0.000 A 
ATOM     20  C   UNL     1      34.643  58.982  58.347  0.00  0.00    +0.000 A 
BRANCH  17  21
ATOM     21  O   UNL     1      36.258  57.802  54.763  0.00  0.00    +0.000 OA
ATOM     22  C   UNL     1      37.441  58.416  54.269  0.00  0.00    +0.000 C 
ENDBRANCH  17  21
BRANCH  18  23
ATOM     23  O   UNL     1      33.783  59.141  54.771  0.00  0.00    +0.000 OA
ATOM     24  C   UNL     1      34.134  60.331  54.062  0.00  0.00    +0.000 C 
ENDBRANCH  18  23
BRANCH  19  25
ATOM     25  O   UNL     1      32.722  59.919  57.206  0.00  0.00    +0.000 OA
ATOM     26  C   UNL     1      32.300  60.416  58.476  0.00  0.00    +0.000 C 
ENDBRANCH  19  25
ENDBRANCH   2  15
TORSDOF 6
ENDMDL
MODEL 9
REMARK VINA RESULT:      -5.8     10.468     14.018
REMARK  Name = 
REMARK  6 active torsions:
REMARK  status: ('A' for Active; 'I' for Inactive)
REMARK    1  A    between atoms: O_2  and  C_3
REMARK    2  A    between atoms: C_6  and  C_7
REMARK    3  A    between atoms: C_8  and  C_9
REMARK    4  A    between atoms: C_11  and  O_12
REMARK    5  A    between atoms: C_14  and  O_15
REMARK    6  A    between atoms: C_17  and  O_18
REMARK                            x       y       z     vdW  Elec       q    Type
REMARK                         _______ _______ _______ _____ _____    ______ ____
ROOT
ATOM      1  C   UNL     1      36.718  54.183  59.492  0.00  0.00    +0.000 C 
ATOM      2  C   UNL     1      35.821  53.623  60.276  0.00  0.00    +0.000 C 
ATOM      3  C   UNL     1      34.512  54.306  60.047  0.00  0.00    +0.000 C 
ATOM      4  O   UNL     1      33.392  53.852  60.287  0.00  0.00    +0.000 OA
ATOM      5  C   UNL     1      34.865  55.620  59.478  0.00  0.00    +0.000 C 
ATOM      6  C   UNL     1      36.112  55.283  58.654  0.00  0.00    +0.000 C 
ENDROOT
BRANCH   1  10
ATOM      7  C   UNL     1      40.889  53.204  59.094  0.00  0.00    +0.000 A 
ATOM      8  C   UNL     1      39.950  52.706  58.193  0.00  0.00    +0.000 A 
ATOM      9  C   UNL     1      38.617  53.019  58.348  0.00  0.00    +0.000 A 
ATOM     10  C   UNL     1      38.145  53.832  59.387  0.00  0.00    +0.000 A 
ATOM     11  C   UNL     1      39.096  54.305  60.254  0.00  0.00    +0.000 A 
ATOM     12  C   UNL     1      40.455  54.007  60.126  0.00  0.00    +0.000 A 
BRANCH   7  14
ATOM     13  C   UNL     1      42.623  51.568  58.457  0.00  0.00    +0.000 C 
ATOM     14  O   UNL     1      42.217  52.859  58.889  0.00  0.00    +0.000 OA
ENDBRANCH   7  14
ENDBRANCH   1  10
BRANCH   2  15
ATOM     15  C   UNL     1      36.003  52.532  61.225  0.00  0.00    +0.000 A 
ATOM     16  C   UNL     1      36.292  51.269  60.683  0.00  0.00    +0.000 A 
ATOM     17  C   UNL     1      36.484  50.185  61.504  0.00  0.00    +0.000 A 
ATOM     18  C   UNL     1      36.407  50.268  62.872  0.00  0.00    +0.000 A 
ATOM     19  C   UNL     1      36.121  51.517  63.412  0.00  0.00    +0.000 A 
ATOM     20  C   UNL     1      35.927  52.609  62.584  0.00  0.00    +0.000 A 
BRANCH  17  21
ATOM     21  O   UNL     1      36.767  48.958  60.909  0.00  0.00    +0.000 OA
ATOM     22  C   UNL     1      38.106  48.579  60.617  0.00  0.00    +0.000 C 
ENDBRANCH  17  21
BRANCH  18  23
ATOM     23  O   UNL     1      36.599  49.170  63.710  0.00  0.00    +0.000 OA
ATOM     24  C   UNL     1      35.455  48.372  64.024  0.00  0.00    +0.000 C 
ENDBRANCH  18  23
BRANCH  19  25
ATOM     25  O   UNL     1      36.034  51.648  64.806  0.00  0.00    +0.000 OA
ATOM     26  C   UNL     1      37.136  52.282  65.453  0.00  0.00    +0.000 C 
ENDBRANCH  19  25
ENDBRANCH   2  15
TORSDOF 6
ENDMDL
MODEL 10
REMARK VINA RESULT:      -5.8     14.077     17.186
REMARK  Name = 
REMARK  6 active torsions:
REMARK  status: ('A' for Active; 'I' for Inactive)
REMARK    1  A    between atoms: O_2  and  C_3
REMARK    2  A    between atoms: C_6  and  C_7
REMARK    3  A    between atoms: C_8  and  C_9
REMARK    4  A    between atoms: C_11  and  O_12
REMARK    5  A    between atoms: C_14  and  O_15
REMARK    6  A    between atoms: C_17  and  O_18
REMARK                            x       y       z     vdW  Elec       q    Type
REMARK                         _______ _______ _______ _____ _____    ______ ____
ROOT
ATOM      1  C   UNL     1      36.695  57.053  60.094  0.00  0.00    +0.000 C 
ATOM      2  C   UNL     1      36.704  58.163  59.387  0.00  0.00    +0.000 C 
ATOM      3  C   UNL     1      37.547  59.166  60.106  0.00  0.00    +0.000 C 
ATOM      4  O   UNL     1      38.098  60.152  59.615  0.00  0.00    +0.000 OA
ATOM      5  C   UNL     1      37.565  58.709  61.508  0.00  0.00    +0.000 C 
ATOM      6  C   UNL     1      37.530  57.186  61.345  0.00  0.00    +0.000 C 
ENDROOT
BRANCH   1  10
ATOM      7  C   UNL     1      34.565  53.450  59.096  0.00  0.00    +0.000 A 
ATOM      8  C   UNL     1      33.968  54.440  59.874  0.00  0.00    +0.000 A 
ATOM      9  C   UNL     1      34.673  55.579  60.195  0.00  0.00    +0.000 A 
ATOM     10  C   UNL     1      35.989  55.801  59.769  0.00  0.00    +0.000 A 
ATOM     11  C   UNL     1      36.545  54.807  59.005  0.00  0.00    +0.000 A 
ATOM     12  C   UNL     1      35.859  53.640  58.662  0.00  0.00    +0.000 A 
BRANCH   7  14
ATOM     13  C   UNL     1      34.219  51.007  59.132  0.00  0.00    +0.000 C 
ATOM     14  O   UNL     1      33.807  52.326  58.802  0.00  0.00    +0.000 OA
ENDBRANCH   7  14
ENDBRANCH   1  10
BRANCH   2  15
ATOM     15  C   UNL     1      36.032  58.437  58.123  0.00  0.00    +0.000 A 
ATOM     16  C   UNL     1      34.926  59.301  58.173  0.00  0.00    +0.000 A 
ATOM     17  C   UNL     1      34.236  59.619  57.028  0.00  0.00    +0.000 A 
ATOM     18  C   UNL     1      34.579  59.123  55.796  0.00  0.00    +0.000 A 
ATOM     19  C   UNL     1      35.674  58.268  55.742  0.00  0.00    +0.000 A 
ATOM     20  C   UNL     1      36.368  57.948  56.896  0.00  0.00    +0.000 A 
BRANCH  17  21
ATOM     21  O   UNL     1      33.147  60.479  57.142  0.00  0.00    +0.000 OA
ATOM     22  C   UNL     1      31.859  59.986  57.488  0.00  0.00    +0.000 C 
ENDBRANCH  17  21
BRANCH  18  23
ATOM     23  O   UNL     1      33.881  59.442  54.630  0.00  0.00    +0.000 OA
ATOM     24  C   UNL     1      34.301  60.601  53.907  0.00  0.00    +0.000 C 
ENDBRANCH  18  23
BRANCH  19  25
ATOM     25  O   UNL     1      36.060  57.740  54.501  0.00  0.00    +0.000 OA
ATOM     26  C   UNL     1      37.197  58.341  53.882  0.00  0.00    +0.000 C 
ENDBRANCH  19  25
ENDBRANCH   2  15
TORSDOF 6
ENDMDL
