REMARK  Name = 
REMARK  2 active torsions:
REMARK  status: ('A' for Active; 'I' for Inactive)
REMARK    1  A    between atoms: C_4  and  C_5
REMARK    2  A    between atoms: C_6  and  C_7
REMARK                            x       y       z     vdW  Elec       q    Type
REMARK                         _______ _______ _______ _____ _____    ______ ____
ROOT
ATOM      1  C   UNL     1       0.770   0.883   2.267  0.00  0.00    +0.000 C 
ATOM      2  C   UNL     1      -0.439   0.645   2.472  0.00  0.00    +0.000 C 
ENDROOT
BRANCH   1   6
ATOM      3  O   UNL     1       5.069   1.314   0.272  0.00  0.00    +0.000 OA
ATOM      4  C   UNL     1       3.739   0.937   0.148  0.00  0.00    +0.000 A 
ATOM      5  C   UNL     1       2.852   1.046   1.163  0.00  0.00    +0.000 A 
ATOM      6  C   UNL     1       1.490   0.668   1.058  0.00  0.00    +0.000 A 
ATOM      7  C   UNL     1       1.163   0.189  -0.151  0.00  0.00    +0.000 A 
ATOM      8  C   UNL     1       1.983   0.042  -1.230  0.00  0.00    +0.000 A 
ATOM      9  O   UNL     1       1.532  -0.461  -2.413  0.00  0.00    +0.000 OA
ATOM     10  C   UNL     1       3.292   0.421  -1.081  0.00  0.00    +0.000 A 
ATOM     11  O   UNL     1       4.189   0.304  -2.127  0.00  0.00    +0.000 OA
ENDBRANCH   1   6
BRANCH   2  12
ATOM     12  C   UNL     1      -1.348   0.102   1.516  0.00  0.00    +0.000 A 
ATOM     13  C   UNL     1      -2.674  -0.082   1.976  0.00  0.00    +0.000 A 
ATOM     14  C   UNL     1      -3.659  -0.592   1.181  0.00  0.00    +0.000 A 
ATOM     15  O   UNL     1      -4.938  -0.752   1.676  0.00  0.00    +0.000 OA
ATOM     16  C   UNL     1      -3.426  -0.963  -0.127  0.00  0.00    +0.000 A 
ATOM     17  O   UNL     1      -4.443  -1.475  -0.905  0.00  0.00    +0.000 OA
ATOM     18  C   UNL     1      -2.127  -0.795  -0.617  0.00  0.00    +0.000 A 
ATOM     19  O   UNL     1      -1.846  -1.152  -1.919  0.00  0.00    +0.000 OA
ATOM     20  C   UNL     1      -1.178  -0.278   0.228  0.00  0.00    +0.000 A 
ENDBRANCH   2  12
TORSDOF 2
