MODEL 1
REMARK VINA RESULT:      -7.7      0.000      0.000
REMARK  Name = 
REMARK  5 active torsions:
REMARK  status: ('A' for Active; 'I' for Inactive)
REMARK    1  A    between atoms: C_2  and  C_3
REMARK    2  A    between atoms: C_5  and  O_6
REMARK    3  A    between atoms: O_6  and  C_7
REMARK    4  A    between atoms: C_12  and  C_13
REMARK    5  A    between atoms: C_14  and  C_15
REMARK                            x       y       z     vdW  Elec       q    Type
REMARK                         _______ _______ _______ _____ _____    ______ ____
ROOT
ATOM      1  C   UNL     1      36.215  56.898  58.125  0.00  0.00    +0.000 A 
ATOM      2  C   UNL     1      36.741  58.062  58.737  0.00  0.00    +0.000 A 
ATOM      3  C   UNL     1      37.110  59.188  57.985  0.00  0.00    +0.000 A 
ATOM      4  O   UNL     1      37.621  60.309  58.610  0.00  0.00    +0.000 OA
ATOM      5  C   UNL     1      36.928  59.057  56.636  0.00  0.00    +0.000 A 
ATOM      6  C   UNL     1      36.441  58.010  55.979  0.00  0.00    +0.000 A 
ATOM      7  C   UNL     1      36.059  56.866  56.799  0.00  0.00    +0.000 A 
ENDROOT
BRANCH   6   8
ATOM      8  C   UNL     1      36.397  57.735  54.582  0.00  0.00    +0.000 C 
ATOM      9  C   UNL     1      35.711  58.455  53.809  0.00  0.00    +0.000 C 
BRANCH   9  10
ATOM     10  C   UNL     1      34.901  59.616  54.233  0.00  0.00    +0.000 A 
ATOM     11  C   UNL     1      33.684  59.421  54.912  0.00  0.00    +0.000 A 
ATOM     12  C   UNL     1      32.993  60.591  55.345  0.00  0.00    +0.000 A 
ATOM     13  C   UNL     1      33.421  61.828  55.164  0.00  0.00    +0.000 A 
ATOM     14  O   UNL     1      32.735  63.000  55.578  0.00  0.00    +0.000 OA
ATOM     15  C   UNL     1      34.621  62.015  54.501  0.00  0.00    +0.000 A 
ATOM     16  C   UNL     1      35.344  60.895  54.040  0.00  0.00    +0.000 A 
ENDBRANCH   9  10
ENDBRANCH   6   8
BRANCH   1  17
ATOM     17  O   UNL     1      35.947  55.886  59.095  0.00  0.00    +0.000 OA
BRANCH  17  20
ATOM     18  C   UNL     1      38.714  53.899  59.186  0.00  0.00    +0.000 C 
ATOM     19  O   UNL     1      37.539  54.647  59.955  0.00  0.00    +0.000 OA
ATOM     20  C   UNL     1      36.839  54.702  58.448  0.00  0.00    +0.000 C 
ATOM     21  C   UNL     1      35.870  53.388  59.066  0.00  0.00    +0.000 C 
ATOM     22  O   UNL     1      35.042  53.255  57.811  0.00  0.00    +0.000 OA
ATOM     23  C   UNL     1      37.042  52.248  58.514  0.00  0.00    +0.000 C 
ATOM     24  O   UNL     1      36.268  51.085  59.208  0.00  0.00    +0.000 OA
ATOM     25  C   UNL     1      38.073  52.376  59.863  0.00  0.00    +0.000 C 
ATOM     26  O   UNL     1      39.162  51.618  59.134  0.00  0.00    +0.000 OA
BRANCH  18  28
ATOM     27  O   UNL     1      40.981  54.102  59.772  0.00  0.00    +0.000 OA
ATOM     28  C   UNL     1      39.742  54.136  60.431  0.00  0.00    +0.000 C 
ENDBRANCH  18  28
ENDBRANCH  17  20
ENDBRANCH   1  17
TORSDOF 5
ENDMDL
MODEL 2
REMARK VINA RESULT:      -7.5      1.992      2.851
REMARK  Name = 
REMARK  5 active torsions:
REMARK  status: ('A' for Active; 'I' for Inactive)
REMARK    1  A    between atoms: C_2  and  C_3
REMARK    2  A    between atoms: C_5  and  O_6
REMARK    3  A    between atoms: O_6  and  C_7
REMARK    4  A    between atoms: C_12  and  C_13
REMARK    5  A    between atoms: C_14  and  C_15
REMARK                            x       y       z     vdW  Elec       q    Type
REMARK                         _______ _______ _______ _____ _____    ______ ____
ROOT
ATOM      1  C   UNL     1      35.763  56.932  58.071  0.00  0.00    +0.000 A 
ATOM      2  C   UNL     1      34.611  57.737  58.248  0.00  0.00    +0.000 A 
ATOM      3  C   UNL     1      34.055  58.472  57.190  0.00  0.00    +0.000 A 
ATOM      4  O   UNL     1      32.931  59.249  57.393  0.00  0.00    +0.000 OA
ATOM      5  C   UNL     1      34.719  58.350  56.001  0.00  0.00    +0.000 A 
ATOM      6  C   UNL     1      35.799  57.620  55.743  0.00  0.00    +0.000 A 
ATOM      7  C   UNL     1      36.337  56.863  56.868  0.00  0.00    +0.000 A 
ENDROOT
BRANCH   6   8
ATOM      8  C   UNL     1      36.642  57.589  54.596  0.00  0.00    +0.000 C 
ATOM      9  C   UNL     1      37.367  58.579  54.308  0.00  0.00    +0.000 C 
BRANCH   9  10
ATOM     10  C   UNL     1      37.427  59.835  55.082  0.00  0.00    +0.000 A 
ATOM     11  C   UNL     1      36.685  60.958  54.671  0.00  0.00    +0.000 A 
ATOM     12  C   UNL     1      36.745  62.112  55.507  0.00  0.00    +0.000 A 
ATOM     13  C   UNL     1      37.432  62.190  56.633  0.00  0.00    +0.000 A 
ATOM     14  O   UNL     1      37.509  63.338  57.465  0.00  0.00    +0.000 OA
ATOM     15  C   UNL     1      38.156  61.083  57.037  0.00  0.00    +0.000 A 
ATOM     16  C   UNL     1      38.143  59.916  56.245  0.00  0.00    +0.000 A 
ENDBRANCH   9  10
ENDBRANCH   6   8
BRANCH   1  17
ATOM     17  O   UNL     1      36.148  56.313  59.298  0.00  0.00    +0.000 OA
BRANCH  17  20
ATOM     18  C   UNL     1      36.844  53.031  58.703  0.00  0.00    +0.000 C 
ATOM     19  O   UNL     1      37.153  54.375  59.498  0.00  0.00    +0.000 OA
ATOM     20  C   UNL     1      35.638  54.814  58.973  0.00  0.00    +0.000 C 
ATOM     21  C   UNL     1      35.172  54.423  60.609  0.00  0.00    +0.000 C 
ATOM     22  O   UNL     1      33.725  54.805  60.412  0.00  0.00    +0.000 OA
ATOM     23  C   UNL     1      34.890  52.784  60.149  0.00  0.00    +0.000 C 
ATOM     24  O   UNL     1      34.635  52.389  61.637  0.00  0.00    +0.000 OA
ATOM     25  C   UNL     1      36.509  52.273  60.285  0.00  0.00    +0.000 C 
ATOM     26  O   UNL     1      36.186  50.977  59.572  0.00  0.00    +0.000 OA
BRANCH  18  28
ATOM     27  O   UNL     1      39.033  53.812  58.356  0.00  0.00    +0.000 OA
ATOM     28  C   UNL     1      38.418  52.604  58.720  0.00  0.00    +0.000 C 
ENDBRANCH  18  28
ENDBRANCH  17  20
ENDBRANCH   1  17
TORSDOF 5
ENDMDL
MODEL 3
REMARK VINA RESULT:      -7.4      2.453      4.952
REMARK  Name = 
REMARK  5 active torsions:
REMARK  status: ('A' for Active; 'I' for Inactive)
REMARK    1  A    between atoms: C_2  and  C_3
REMARK    2  A    between atoms: C_5  and  O_6
REMARK    3  A    between atoms: O_6  and  C_7
REMARK    4  A    between atoms: C_12  and  C_13
REMARK    5  A    between atoms: C_14  and  C_15
REMARK                            x       y       z     vdW  Elec       q    Type
REMARK                         _______ _______ _______ _____ _____    ______ ____
ROOT
ATOM      1  C   UNL     1      36.365  53.307  58.868  0.00  0.00    +0.000 A 
ATOM      2  C   UNL     1      35.056  52.800  58.680  0.00  0.00    +0.000 A 
ATOM      3  C   UNL     1      33.922  53.515  59.095  0.00  0.00    +0.000 A 
ATOM      4  O   UNL     1      32.656  52.994  58.899  0.00  0.00    +0.000 OA
ATOM      5  C   UNL     1      34.191  54.714  59.693  0.00  0.00    +0.000 A 
ATOM      6  C   UNL     1      35.380  55.267  59.907  0.00  0.00    +0.000 A 
ATOM      7  C   UNL     1      36.531  54.496  59.450  0.00  0.00    +0.000 A 
ENDROOT
BRANCH   6   8
ATOM      8  C   UNL     1      35.743  56.408  60.679  0.00  0.00    +0.000 C 
ATOM      9  C   UNL     1      35.756  57.555  60.158  0.00  0.00    +0.000 C 
BRANCH   9  10
ATOM     10  C   UNL     1      35.418  57.847  58.750  0.00  0.00    +0.000 A 
ATOM     11  C   UNL     1      34.125  58.284  58.407  0.00  0.00    +0.000 A 
ATOM     12  C   UNL     1      33.896  58.607  57.037  0.00  0.00    +0.000 A 
ATOM     13  C   UNL     1      34.810  58.537  56.085  0.00  0.00    +0.000 A 
ATOM     14  O   UNL     1      34.589  58.844  54.716  0.00  0.00    +0.000 OA
ATOM     15  C   UNL     1      36.082  58.113  56.427  0.00  0.00    +0.000 A 
ATOM     16  C   UNL     1      36.364  57.769  57.765  0.00  0.00    +0.000 A 
ENDBRANCH   9  10
ENDBRANCH   6   8
BRANCH   1  17
ATOM     17  O   UNL     1      37.344  52.385  58.391  0.00  0.00    +0.000 OA
BRANCH  17  20
ATOM     18  C   UNL     1      38.490  50.643  61.087  0.00  0.00    +0.000 C 
ATOM     19  O   UNL     1      38.063  50.670  59.554  0.00  0.00    +0.000 OA
ATOM     20  C   UNL     1      38.262  52.312  59.720  0.00  0.00    +0.000 C 
ATOM     21  C   UNL     1      39.766  52.017  58.885  0.00  0.00    +0.000 C 
ATOM     22  O   UNL     1      40.171  53.471  58.858  0.00  0.00    +0.000 OA
ATOM     23  C   UNL     1      40.561  51.737  60.391  0.00  0.00    +0.000 C 
ATOM     24  O   UNL     1      41.864  51.308  59.647  0.00  0.00    +0.000 OA
ATOM     25  C   UNL     1      40.102  50.104  60.541  0.00  0.00    +0.000 C 
ATOM     26  O   UNL     1      40.561  50.081  61.984  0.00  0.00    +0.000 OA
BRANCH  18  28
ATOM     27  O   UNL     1      36.611  49.259  60.806  0.00  0.00    +0.000 OA
ATOM     28  C   UNL     1      37.931  49.121  61.263  0.00  0.00    +0.000 C 
ENDBRANCH  18  28
ENDBRANCH  17  20
ENDBRANCH   1  17
TORSDOF 5
ENDMDL
MODEL 4
REMARK VINA RESULT:      -7.2      2.010      2.770
REMARK  Name = 
REMARK  5 active torsions:
REMARK  status: ('A' for Active; 'I' for Inactive)
REMARK    1  A    between atoms: C_2  and  C_3
REMARK    2  A    between atoms: C_5  and  O_6
REMARK    3  A    between atoms: O_6  and  C_7
REMARK    4  A    between atoms: C_12  and  C_13
REMARK    5  A    between atoms: C_14  and  C_15
REMARK                            x       y       z     vdW  Elec       q    Type
REMARK                         _______ _______ _______ _____ _____    ______ ____
ROOT
ATOM      1  C   UNL     1      35.713  57.249  58.093  0.00  0.00    +0.000 A 
ATOM      2  C   UNL     1      36.530  56.854  57.006  0.00  0.00    +0.000 A 
ATOM      3  C   UNL     1      36.290  57.308  55.700  0.00  0.00    +0.000 A 
ATOM      4  O   UNL     1      37.104  56.905  54.658  0.00  0.00    +0.000 OA
ATOM      5  C   UNL     1      35.214  58.142  55.575  0.00  0.00    +0.000 A 
ATOM      6  C   UNL     1      34.398  58.566  56.535  0.00  0.00    +0.000 A 
ATOM      7  C   UNL     1      34.690  58.079  57.879  0.00  0.00    +0.000 A 
ENDROOT
BRANCH   6   8
ATOM      8  C   UNL     1      33.166  59.274  56.453  0.00  0.00    +0.000 C 
ATOM      9  C   UNL     1      33.141  60.476  56.076  0.00  0.00    +0.000 C 
BRANCH   9  10
ATOM     10  C   UNL     1      34.330  61.266  55.696  0.00  0.00    +0.000 A 
ATOM     11  C   UNL     1      35.197  61.764  56.686  0.00  0.00    +0.000 A 
ATOM     12  C   UNL     1      36.357  62.461  56.236  0.00  0.00    +0.000 A 
ATOM     13  C   UNL     1      36.672  62.656  54.967  0.00  0.00    +0.000 A 
ATOM     14  O   UNL     1      37.817  63.360  54.509  0.00  0.00    +0.000 OA
ATOM     15  C   UNL     1      35.820  62.160  53.997  0.00  0.00    +0.000 A 
ATOM     16  C   UNL     1      34.652  61.471  54.383  0.00  0.00    +0.000 A 
ENDBRANCH   9  10
ENDBRANCH   6   8
BRANCH   1  17
ATOM     17  O   UNL     1      36.141  56.630  59.306  0.00  0.00    +0.000 OA
BRANCH  17  20
ATOM     18  C   UNL     1      37.245  53.438  58.857  0.00  0.00    +0.000 C 
ATOM     19  O   UNL     1      37.277  54.794  59.689  0.00  0.00    +0.000 OA
ATOM     20  C   UNL     1      35.844  55.093  58.901  0.00  0.00    +0.000 C 
ATOM     21  C   UNL     1      35.135  54.637  60.430  0.00  0.00    +0.000 C 
ATOM     22  O   UNL     1      33.716  54.881  59.976  0.00  0.00    +0.000 OA
ATOM     23  C   UNL     1      35.098  52.985  59.933  0.00  0.00    +0.000 C 
ATOM     24  O   UNL     1      34.623  52.547  61.354  0.00  0.00    +0.000 OA
ATOM     25  C   UNL     1      36.709  52.630  60.357  0.00  0.00    +0.000 C 
ATOM     26  O   UNL     1      36.645  51.318  59.603  0.00  0.00    +0.000 OA
BRANCH  18  28
ATOM     27  O   UNL     1      39.278  52.765  57.888  0.00  0.00    +0.000 OA
ATOM     28  C   UNL     1      38.825  53.164  59.156  0.00  0.00    +0.000 C 
ENDBRANCH  18  28
ENDBRANCH  17  20
ENDBRANCH   1  17
TORSDOF 5
ENDMDL
MODEL 5
REMARK VINA RESULT:      -7.2      1.764      3.245
REMARK  Name = 
REMARK  5 active torsions:
REMARK  status: ('A' for Active; 'I' for Inactive)
REMARK    1  A    between atoms: C_2  and  C_3
REMARK    2  A    between atoms: C_5  and  O_6
REMARK    3  A    between atoms: O_6  and  C_7
REMARK    4  A    between atoms: C_12  and  C_13
REMARK    5  A    between atoms: C_14  and  C_15
REMARK                            x       y       z     vdW  Elec       q    Type
REMARK                         _______ _______ _______ _____ _____    ______ ____
ROOT
ATOM      1  C   UNL     1      36.188  56.405  57.809  0.00  0.00    +0.000 A 
ATOM      2  C   UNL     1      35.524  56.481  59.058  0.00  0.00    +0.000 A 
ATOM      3  C   UNL     1      35.346  57.703  59.725  0.00  0.00    +0.000 A 
ATOM      4  O   UNL     1      34.695  57.746  60.943  0.00  0.00    +0.000 OA
ATOM      5  C   UNL     1      35.867  58.788  59.076  0.00  0.00    +0.000 A 
ATOM      6  C   UNL     1      36.498  58.811  57.907  0.00  0.00    +0.000 A 
ATOM      7  C   UNL     1      36.653  57.521  57.243  0.00  0.00    +0.000 A 
ENDROOT
BRANCH   6   8
ATOM      8  C   UNL     1      37.222  59.858  57.268  0.00  0.00    +0.000 C 
ATOM      9  C   UNL     1      36.656  60.606  56.428  0.00  0.00    +0.000 C 
BRANCH   9  10
ATOM     10  C   UNL     1      35.242  60.495  56.015  0.00  0.00    +0.000 A 
ATOM     11  C   UNL     1      34.246  61.222  56.693  0.00  0.00    +0.000 A 
ATOM     12  C   UNL     1      32.915  61.111  56.194  0.00  0.00    +0.000 A 
ATOM     13  C   UNL     1      32.562  60.391  55.143  0.00  0.00    +0.000 A 
ATOM     14  O   UNL     1      31.239  60.264  54.646  0.00  0.00    +0.000 OA
ATOM     15  C   UNL     1      33.545  59.683  54.475  0.00  0.00    +0.000 A 
ATOM     16  C   UNL     1      34.879  59.745  54.930  0.00  0.00    +0.000 A 
ENDBRANCH   9  10
ENDBRANCH   6   8
BRANCH   1  17
ATOM     17  O   UNL     1      36.270  55.055  57.354  0.00  0.00    +0.000 OA
BRANCH  17  20
ATOM     18  C   UNL     1      34.984  52.669  59.419  0.00  0.00    +0.000 C 
ATOM     19  O   UNL     1      35.459  53.112  57.966  0.00  0.00    +0.000 OA
ATOM     20  C   UNL     1      36.243  54.322  58.795  0.00  0.00    +0.000 C 
ATOM     21  C   UNL     1      37.652  53.329  58.519  0.00  0.00    +0.000 C 
ATOM     22  O   UNL     1      38.604  54.292  59.187  0.00  0.00    +0.000 OA
ATOM     23  C   UNL     1      37.353  52.475  59.988  0.00  0.00    +0.000 C 
ATOM     24  O   UNL     1      38.508  51.477  59.667  0.00  0.00    +0.000 OA
ATOM     25  C   UNL     1      36.220  51.382  59.338  0.00  0.00    +0.000 C 
ATOM     26  O   UNL     1      35.816  50.936  60.727  0.00  0.00    +0.000 OA
BRANCH  18  28
ATOM     27  O   UNL     1      32.839  52.673  58.458  0.00  0.00    +0.000 OA
ATOM     28  C   UNL     1      33.812  51.720  58.797  0.00  0.00    +0.000 C 
ENDBRANCH  18  28
ENDBRANCH  17  20
ENDBRANCH   1  17
TORSDOF 5
ENDMDL
MODEL 6
REMARK VINA RESULT:      -7.2      2.290      3.821
REMARK  Name = 
REMARK  5 active torsions:
REMARK  status: ('A' for Active; 'I' for Inactive)
REMARK    1  A    between atoms: C_2  and  C_3
REMARK    2  A    between atoms: C_5  and  O_6
REMARK    3  A    between atoms: O_6  and  C_7
REMARK    4  A    between atoms: C_12  and  C_13
REMARK    5  A    between atoms: C_14  and  C_15
REMARK                            x       y       z     vdW  Elec       q    Type
REMARK                         _______ _______ _______ _____ _____    ______ ____
ROOT
ATOM      1  C   UNL     1      36.077  56.743  56.907  0.00  0.00    +0.000 A 
ATOM      2  C   UNL     1      35.241  57.342  57.880  0.00  0.00    +0.000 A 
ATOM      3  C   UNL     1      34.407  58.427  57.570  0.00  0.00    +0.000 A 
ATOM      4  O   UNL     1      33.602  58.992  58.542  0.00  0.00    +0.000 OA
ATOM      5  C   UNL     1      34.480  58.849  56.271  0.00  0.00    +0.000 A 
ATOM      6  C   UNL     1      35.229  58.348  55.295  0.00  0.00    +0.000 A 
ATOM      7  C   UNL     1      36.073  57.215  55.658  0.00  0.00    +0.000 A 
ENDROOT
BRANCH   6   8
ATOM      8  C   UNL     1      35.494  58.845  53.987  0.00  0.00    +0.000 C 
ATOM      9  C   UNL     1      36.238  59.848  53.821  0.00  0.00    +0.000 C 
BRANCH   9  10
ATOM     10  C   UNL     1      36.892  60.603  54.910  0.00  0.00    +0.000 A 
ATOM     11  C   UNL     1      36.383  61.853  55.310  0.00  0.00    +0.000 A 
ATOM     12  C   UNL     1      37.030  62.489  56.411  0.00  0.00    +0.000 A 
ATOM     13  C   UNL     1      38.053  61.984  57.077  0.00  0.00    +0.000 A 
ATOM     14  O   UNL     1      38.712  62.614  58.165  0.00  0.00    +0.000 OA
ATOM     15  C   UNL     1      38.546  60.752  56.684  0.00  0.00    +0.000 A 
ATOM     16  C   UNL     1      37.953  60.080  55.595  0.00  0.00    +0.000 A 
ENDBRANCH   9  10
ENDBRANCH   6   8
BRANCH   1  17
ATOM     17  O   UNL     1      36.847  55.685  57.474  0.00  0.00    +0.000 OA
BRANCH  17  20
ATOM     18  C   UNL     1      34.672  53.815  59.314  0.00  0.00    +0.000 C 
ATOM     19  O   UNL     1      35.909  53.890  58.315  0.00  0.00    +0.000 OA
ATOM     20  C   UNL     1      35.987  55.470  58.827  0.00  0.00    +0.000 C 
ATOM     21  C   UNL     1      37.316  54.885  59.795  0.00  0.00    +0.000 C 
ATOM     22  O   UNL     1      37.635  56.238  60.383  0.00  0.00    +0.000 OA
ATOM     23  C   UNL     1      36.226  54.492  61.074  0.00  0.00    +0.000 C 
ATOM     24  O   UNL     1      37.380  53.815  61.878  0.00  0.00    +0.000 OA
ATOM     25  C   UNL     1      35.757  52.976  60.458  0.00  0.00    +0.000 C 
ATOM     26  O   UNL     1      34.616  52.897  61.450  0.00  0.00    +0.000 OA
BRANCH  18  28
ATOM     27  O   UNL     1      32.788  52.710  58.447  0.00  0.00    +0.000 OA
ATOM     28  C   UNL     1      34.150  52.426  58.636  0.00  0.00    +0.000 C 
ENDBRANCH  18  28
ENDBRANCH  17  20
ENDBRANCH   1  17
TORSDOF 5
ENDMDL
MODEL 7
REMARK VINA RESULT:      -7.0      2.397      4.246
REMARK  Name = 
REMARK  5 active torsions:
REMARK  status: ('A' for Active; 'I' for Inactive)
REMARK    1  A    between atoms: C_2  and  C_3
REMARK    2  A    between atoms: C_5  and  O_6
REMARK    3  A    between atoms: O_6  and  C_7
REMARK    4  A    between atoms: C_12  and  C_13
REMARK    5  A    between atoms: C_14  and  C_15
REMARK                            x       y       z     vdW  Elec       q    Type
REMARK                         _______ _______ _______ _____ _____    ______ ____
ROOT
ATOM      1  C   UNL     1      37.577  55.443  60.095  0.00  0.00    +0.000 A 
ATOM      2  C   UNL     1      37.188  54.310  59.339  0.00  0.00    +0.000 A 
ATOM      3  C   UNL     1      35.958  54.261  58.665  0.00  0.00    +0.000 A 
ATOM      4  O   UNL     1      35.605  53.141  57.936  0.00  0.00    +0.000 OA
ATOM      5  C   UNL     1      35.184  55.378  58.808  0.00  0.00    +0.000 A 
ATOM      6  C   UNL     1      35.468  56.482  59.491  0.00  0.00    +0.000 A 
ATOM      7  C   UNL     1      36.760  56.497  60.167  0.00  0.00    +0.000 A 
ENDROOT
BRANCH   6   8
ATOM      8  C   UNL     1      34.646  57.593  59.834  0.00  0.00    +0.000 C 
ATOM      9  C   UNL     1      34.538  58.576  59.052  0.00  0.00    +0.000 C 
BRANCH   9  10
ATOM     10  C   UNL     1      35.221  58.696  57.748  0.00  0.00    +0.000 A 
ATOM     11  C   UNL     1      34.546  58.357  56.560  0.00  0.00    +0.000 A 
ATOM     12  C   UNL     1      35.251  58.562  55.338  0.00  0.00    +0.000 A 
ATOM     13  C   UNL     1      36.474  59.054  55.248  0.00  0.00    +0.000 A 
ATOM     14  O   UNL     1      37.190  59.250  54.037  0.00  0.00    +0.000 OA
ATOM     15  C   UNL     1      37.132  59.392  56.417  0.00  0.00    +0.000 A 
ATOM     16  C   UNL     1      36.488  59.201  57.658  0.00  0.00    +0.000 A 
ENDBRANCH   9  10
ENDBRANCH   6   8
BRANCH   1  17
ATOM     17  O   UNL     1      38.850  55.238  60.707  0.00  0.00    +0.000 OA
BRANCH  17  20
ATOM     18  C   UNL     1      40.605  52.625  59.404  0.00  0.00    +0.000 C 
ATOM     19  O   UNL     1      40.592  54.021  60.169  0.00  0.00    +0.000 OA
ATOM     20  C   UNL     1      38.991  53.652  60.425  0.00  0.00    +0.000 C 
ATOM     21  C   UNL     1      39.546  53.232  62.025  0.00  0.00    +0.000 C 
ATOM     22  O   UNL     1      38.170  52.874  62.534  0.00  0.00    +0.000 OA
ATOM     23  C   UNL     1      39.865  51.618  61.504  0.00  0.00    +0.000 C 
ATOM     24  O   UNL     1      40.518  51.281  62.881  0.00  0.00    +0.000 OA
ATOM     25  C   UNL     1      41.404  51.939  60.847  0.00  0.00    +0.000 C 
ATOM     26  O   UNL     1      41.422  50.586  60.167  0.00  0.00    +0.000 OA
BRANCH  18  28
ATOM     27  O   UNL     1      41.752  52.595  57.352  0.00  0.00    +0.000 OA
ATOM     28  C   UNL     1      42.018  52.988  58.673  0.00  0.00    +0.000 C 
ENDBRANCH  18  28
ENDBRANCH  17  20
ENDBRANCH   1  17
TORSDOF 5
ENDMDL
MODEL 8
REMARK VINA RESULT:      -6.9      5.156      7.508
REMARK  Name = 
REMARK  5 active torsions:
REMARK  status: ('A' for Active; 'I' for Inactive)
REMARK    1  A    between atoms: C_2  and  C_3
REMARK    2  A    between atoms: C_5  and  O_6
REMARK    3  A    between atoms: O_6  and  C_7
REMARK    4  A    between atoms: C_12  and  C_13
REMARK    5  A    between atoms: C_14  and  C_15
REMARK                            x       y       z     vdW  Elec       q    Type
REMARK                         _______ _______ _______ _____ _____    ______ ____
ROOT
ATOM      1  C   UNL     1      38.603  53.818  59.101  0.00  0.00    +0.000 A 
ATOM      2  C   UNL     1      39.269  54.500  60.150  0.00  0.00    +0.000 A 
ATOM      3  C   UNL     1      38.585  55.364  61.018  0.00  0.00    +0.000 A 
ATOM      4  O   UNL     1      39.262  56.016  62.031  0.00  0.00    +0.000 OA
ATOM      5  C   UNL     1      37.249  55.492  60.760  0.00  0.00    +0.000 A 
ATOM      6  C   UNL     1      36.544  54.892  59.807  0.00  0.00    +0.000 A 
ATOM      7  C   UNL     1      37.291  53.994  58.933  0.00  0.00    +0.000 A 
ENDROOT
BRANCH   6   8
ATOM      8  C   UNL     1      35.208  55.116  59.367  0.00  0.00    +0.000 C 
ATOM      9  C   UNL     1      34.328  54.227  59.516  0.00  0.00    +0.000 C 
BRANCH   9  10
ATOM     10  C   UNL     1      34.559  52.904  60.130  0.00  0.00    +0.000 A 
ATOM     11  C   UNL     1      34.485  51.736  59.348  0.00  0.00    +0.000 A 
ATOM     12  C   UNL     1      34.785  50.504  59.999  0.00  0.00    +0.000 A 
ATOM     13  C   UNL     1      35.135  50.389  61.268  0.00  0.00    +0.000 A 
ATOM     14  O   UNL     1      35.423  49.166  61.930  0.00  0.00    +0.000 OA
ATOM     15  C   UNL     1      35.213  51.540  62.032  0.00  0.00    +0.000 A 
ATOM     16  C   UNL     1      34.917  52.787  61.444  0.00  0.00    +0.000 A 
ENDBRANCH   9  10
ENDBRANCH   6   8
BRANCH   1  17
ATOM     17  O   UNL     1      39.518  53.028  58.343  0.00  0.00    +0.000 OA
BRANCH  17  20
ATOM     18  C   UNL     1      40.427  50.733  60.692  0.00  0.00    +0.000 C 
ATOM     19  O   UNL     1      39.901  51.057  59.225  0.00  0.00    +0.000 OA
ATOM     20  C   UNL     1      40.493  52.576  59.551  0.00  0.00    +0.000 C 
ATOM     21  C   UNL     1      41.816  52.065  58.533  0.00  0.00    +0.000 C 
ATOM     22  O   UNL     1      42.548  53.382  58.625  0.00  0.00    +0.000 OA
ATOM     23  C   UNL     1      42.637  51.418  59.906  0.00  0.00    +0.000 C 
ATOM     24  O   UNL     1      43.741  50.810  58.985  0.00  0.00    +0.000 OA
ATOM     25  C   UNL     1      41.820  49.923  59.921  0.00  0.00    +0.000 C 
ATOM     26  O   UNL     1      42.371  49.608  61.296  0.00  0.00    +0.000 OA
BRANCH  18  28
ATOM     27  O   UNL     1      38.412  49.734  60.009  0.00  0.00    +0.000 OA
ATOM     28  C   UNL     1      39.541  49.365  60.756  0.00  0.00    +0.000 C 
ENDBRANCH  18  28
ENDBRANCH  17  20
ENDBRANCH   1  17
TORSDOF 5
ENDMDL
MODEL 9
REMARK VINA RESULT:      -6.9      1.464      2.220
REMARK  Name = 
REMARK  5 active torsions:
REMARK  status: ('A' for Active; 'I' for Inactive)
REMARK    1  A    between atoms: C_2  and  C_3
REMARK    2  A    between atoms: C_5  and  O_6
REMARK    3  A    between atoms: O_6  and  C_7
REMARK    4  A    between atoms: C_12  and  C_13
REMARK    5  A    between atoms: C_14  and  C_15
REMARK                            x       y       z     vdW  Elec       q    Type
REMARK                         _______ _______ _______ _____ _____    ______ ____
ROOT
ATOM      1  C   UNL     1      36.184  56.928  58.411  0.00  0.00    +0.000 A 
ATOM      2  C   UNL     1      36.216  56.503  57.060  0.00  0.00    +0.000 A 
ATOM      3  C   UNL     1      36.495  57.393  56.012  0.00  0.00    +0.000 A 
ATOM      4  O   UNL     1      36.518  56.949  54.704  0.00  0.00    +0.000 OA
ATOM      5  C   UNL     1      36.721  58.683  56.406  0.00  0.00    +0.000 A 
ATOM      6  C   UNL     1      36.715  59.169  57.642  0.00  0.00    +0.000 A 
ATOM      7  C   UNL     1      36.431  58.207  58.702  0.00  0.00    +0.000 A 
ENDROOT
BRANCH   6   8
ATOM      8  C   UNL     1      36.756  60.515  58.106  0.00  0.00    +0.000 C 
ATOM      9  C   UNL     1      35.816  61.311  57.843  0.00  0.00    +0.000 C 
BRANCH   9  10
ATOM     10  C   UNL     1      34.615  60.969  57.053  0.00  0.00    +0.000 A 
ATOM     11  C   UNL     1      33.534  60.302  57.659  0.00  0.00    +0.000 A 
ATOM     12  C   UNL     1      32.386  60.065  56.847  0.00  0.00    +0.000 A 
ATOM     13  C   UNL     1      32.268  60.437  55.585  0.00  0.00    +0.000 A 
ATOM     14  O   UNL     1      31.135  60.194  54.764  0.00  0.00    +0.000 OA
ATOM     15  C   UNL     1      33.330  61.098  54.994  0.00  0.00    +0.000 A 
ATOM     16  C   UNL     1      34.497  61.351  55.745  0.00  0.00    +0.000 A 
ENDBRANCH   9  10
ENDBRANCH   6   8
BRANCH   1  17
ATOM     17  O   UNL     1      35.848  55.848  59.280  0.00  0.00    +0.000 OA
BRANCH  17  20
ATOM     18  C   UNL     1      38.618  53.864  59.250  0.00  0.00    +0.000 C 
ATOM     19  O   UNL     1      37.451  54.576  60.066  0.00  0.00    +0.000 OA
ATOM     20  C   UNL     1      36.733  54.695  58.572  0.00  0.00    +0.000 C 
ATOM     21  C   UNL     1      35.773  53.354  59.143  0.00  0.00    +0.000 C 
ATOM     22  O   UNL     1      34.930  53.274  57.894  0.00  0.00    +0.000 OA
ATOM     23  C   UNL     1      36.940  52.241  58.527  0.00  0.00    +0.000 C 
ATOM     24  O   UNL     1      36.176  51.047  59.180  0.00  0.00    +0.000 OA
ATOM     25  C   UNL     1      37.987  52.311  59.869  0.00  0.00    +0.000 C 
ATOM     26  O   UNL     1      39.068  51.587  59.094  0.00  0.00    +0.000 OA
BRANCH  18  28
ATOM     27  O   UNL     1      40.881  54.162  59.808  0.00  0.00    +0.000 OA
ATOM     28  C   UNL     1      39.661  54.048  60.492  0.00  0.00    +0.000 C 
ENDBRANCH  18  28
ENDBRANCH  17  20
ENDBRANCH   1  17
TORSDOF 5
ENDMDL
MODEL 10
REMARK VINA RESULT:      -6.8      4.685      7.065
REMARK  Name = 
REMARK  5 active torsions:
REMARK  status: ('A' for Active; 'I' for Inactive)
REMARK    1  A    between atoms: C_2  and  C_3
REMARK    2  A    between atoms: C_5  and  O_6
REMARK    3  A    between atoms: O_6  and  C_7
REMARK    4  A    between atoms: C_12  and  C_13
REMARK    5  A    between atoms: C_14  and  C_15
REMARK                            x       y       z     vdW  Elec       q    Type
REMARK                         _______ _______ _______ _____ _____    ______ ____
ROOT
ATOM      1  C   UNL     1      37.943  51.566  61.738  0.00  0.00    +0.000 A 
ATOM      2  C   UNL     1      37.062  51.659  62.843  0.00  0.00    +0.000 A 
ATOM      3  C   UNL     1      35.671  51.558  62.688  0.00  0.00    +0.000 A 
ATOM      4  O   UNL     1      34.836  51.653  63.786  0.00  0.00    +0.000 OA
ATOM      5  C   UNL     1      35.253  51.373  61.400  0.00  0.00    +0.000 A 
ATOM      6  C   UNL     1      36.004  51.271  60.308  0.00  0.00    +0.000 A 
ATOM      7  C   UNL     1      37.444  51.371  60.516  0.00  0.00    +0.000 A 
ENDROOT
BRANCH   6   8
ATOM      8  C   UNL     1      35.637  51.266  58.932  0.00  0.00    +0.000 C 
ATOM      9  C   UNL     1      35.347  52.342  58.343  0.00  0.00    +0.000 C 
BRANCH   9  10
ATOM     10  C   UNL     1      35.345  53.677  58.975  0.00  0.00    +0.000 A 
ATOM     11  C   UNL     1      36.499  54.481  58.936  0.00  0.00    +0.000 A 
ATOM     12  C   UNL     1      36.398  55.782  59.511  0.00  0.00    +0.000 A 
ATOM     13  C   UNL     1      35.303  56.279  60.059  0.00  0.00    +0.000 A 
ATOM     14  O   UNL     1      35.195  57.567  60.647  0.00  0.00    +0.000 OA
ATOM     15  C   UNL     1      34.169  55.488  60.090  0.00  0.00    +0.000 A 
ATOM     16  C   UNL     1      34.212  54.187  59.546  0.00  0.00    +0.000 A 
ENDBRANCH   9  10
ENDBRANCH   6   8
BRANCH   1  17
ATOM     17  O   UNL     1      39.300  51.730  62.150  0.00  0.00    +0.000 OA
BRANCH  17  20
ATOM     18  C   UNL     1      41.250  51.636  59.357  0.00  0.00    +0.000 C 
ATOM     19  O   UNL     1      40.947  52.244  60.797  0.00  0.00    +0.000 OA
ATOM     20  C   UNL     1      40.006  50.884  60.967  0.00  0.00    +0.000 C 
ATOM     21  C   UNL     1      41.347  50.315  61.928  0.00  0.00    +0.000 C 
ATOM     22  O   UNL     1      40.689  49.002  62.280  0.00  0.00    +0.000 OA
ATOM     23  C   UNL     1      42.095  49.658  60.518  0.00  0.00    +0.000 C 
ATOM     24  O   UNL     1      43.372  49.295  61.339  0.00  0.00    +0.000 OA
ATOM     25  C   UNL     1      42.828  51.108  60.007  0.00  0.00    +0.000 C 
ATOM     26  O   UNL     1      43.154  50.497  58.660  0.00  0.00    +0.000 OA
BRANCH  18  28
ATOM     27  O   UNL     1      41.033  53.969  59.540  0.00  0.00    +0.000 OA
ATOM     28  C   UNL     1      41.835  53.064  58.827  0.00  0.00    +0.000 C 
ENDBRANCH  18  28
ENDBRANCH  17  20
ENDBRANCH   1  17
TORSDOF 5
ENDMDL
