MODEL 1
REMARK VINA RESULT:      -7.2      0.000      0.000
REMARK  Name = 
REMARK  2 active torsions:
REMARK  status: ('A' for Active; 'I' for Inactive)
REMARK    1  A    between atoms: C_4  and  C_5
REMARK    2  A    between atoms: C_6  and  C_7
REMARK                            x       y       z     vdW  Elec       q    Type
REMARK                         _______ _______ _______ _____ _____    ______ ____
ROOT
ATOM      1  C   UNL     1      29.898  45.341  62.404  0.00  0.00    +0.000 C 
ATOM      2  C   UNL     1      29.889  44.169  61.974  0.00  0.00    +0.000 C 
ENDROOT
BRANCH   1   6
ATOM      3  O   UNL     1      27.036  48.983  61.311  0.00  0.00    +0.000 OA
ATOM      4  C   UNL     1      27.379  47.973  62.199  0.00  0.00    +0.000 A 
ATOM      5  C   UNL     1      28.411  47.126  61.977  0.00  0.00    +0.000 A 
ATOM      6  C   UNL     1      28.779  46.089  62.869  0.00  0.00    +0.000 A 
ATOM      7  C   UNL     1      28.004  46.026  63.961  0.00  0.00    +0.000 A 
ATOM      8  C   UNL     1      26.948  46.831  64.271  0.00  0.00    +0.000 A 
ATOM      9  O   UNL     1      26.230  46.667  65.417  0.00  0.00    +0.000 OA
ATOM     10  C   UNL     1      26.628  47.820  63.377  0.00  0.00    +0.000 A 
ATOM     11  O   UNL     1      25.571  48.679  63.616  0.00  0.00    +0.000 OA
ENDBRANCH   1   6
BRANCH   2  12
ATOM     12  C   UNL     1      28.735  43.337  61.865  0.00  0.00    +0.000 A 
ATOM     13  C   UNL     1      28.752  42.168  62.664  0.00  0.00    +0.000 A 
ATOM     14  C   UNL     1      27.723  41.273  62.670  0.00  0.00    +0.000 A 
ATOM     15  O   UNL     1      27.786  40.147  63.467  0.00  0.00    +0.000 OA
ATOM     16  C   UNL     1      26.595  41.448  61.895  0.00  0.00    +0.000 A 
ATOM     17  O   UNL     1      25.571  40.524  61.924  0.00  0.00    +0.000 OA
ATOM     18  C   UNL     1      26.542  42.592  61.093  0.00  0.00    +0.000 A 
ATOM     19  O   UNL     1      25.434  42.810  60.301  0.00  0.00    +0.000 OA
ATOM     20  C   UNL     1      27.606  43.457  61.128  0.00  0.00    +0.000 A 
ENDBRANCH   2  12
TORSDOF 2
ENDMDL
MODEL 2
REMARK VINA RESULT:      -7.0      0.203      5.734
REMARK  Name = 
REMARK  2 active torsions:
REMARK  status: ('A' for Active; 'I' for Inactive)
REMARK    1  A    between atoms: C_4  and  C_5
REMARK    2  A    between atoms: C_6  and  C_7
REMARK                            x       y       z     vdW  Elec       q    Type
REMARK                         _______ _______ _______ _____ _____    ______ ____
ROOT
ATOM      1  C   UNL     1      29.871  44.027  62.155  0.00  0.00    +0.000 C 
ATOM      2  C   UNL     1      29.972  45.229  62.480  0.00  0.00    +0.000 C 
ENDROOT
BRANCH   1   6
ATOM      3  O   UNL     1      27.427  40.164  63.480  0.00  0.00    +0.000 OA
ATOM      4  C   UNL     1      27.510  41.296  62.681  0.00  0.00    +0.000 A 
ATOM      5  C   UNL     1      28.562  42.145  62.725  0.00  0.00    +0.000 A 
ATOM      6  C   UNL     1      28.667  43.305  61.917  0.00  0.00    +0.000 A 
ATOM      7  C   UNL     1      27.617  43.482  61.102  0.00  0.00    +0.000 A 
ATOM      8  C   UNL     1      26.517  42.686  60.988  0.00  0.00    +0.000 A 
ATOM      9  O   UNL     1      25.508  42.972  60.118  0.00  0.00    +0.000 OA
ATOM     10  C   UNL     1      26.460  41.575  61.789  0.00  0.00    +0.000 A 
ATOM     11  O   UNL     1      25.378  40.715  61.735  0.00  0.00    +0.000 OA
ENDBRANCH   1   6
BRANCH   2  12
ATOM     12  C   UNL     1      28.882  46.126  62.679  0.00  0.00    +0.000 A 
ATOM     13  C   UNL     1      28.178  45.966  63.896  0.00  0.00    +0.000 A 
ATOM     14  C   UNL     1      27.111  46.747  64.232  0.00  0.00    +0.000 A 
ATOM     15  O   UNL     1      26.458  46.552  65.433  0.00  0.00    +0.000 OA
ATOM     16  C   UNL     1      26.646  47.748  63.404  0.00  0.00    +0.000 A 
ATOM     17  O   UNL     1      25.565  48.521  63.772  0.00  0.00    +0.000 OA
ATOM     18  C   UNL     1      27.317  47.936  62.191  0.00  0.00    +0.000 A 
ATOM     19  O   UNL     1      26.888  48.924  61.330  0.00  0.00    +0.000 OA
ATOM     20  C   UNL     1      28.383  47.121  61.907  0.00  0.00    +0.000 A 
ENDBRANCH   2  12
TORSDOF 2
ENDMDL
MODEL 3
REMARK VINA RESULT:      -6.9     12.302     15.007
REMARK  Name = 
REMARK  2 active torsions:
REMARK  status: ('A' for Active; 'I' for Inactive)
REMARK    1  A    between atoms: C_4  and  C_5
REMARK    2  A    between atoms: C_6  and  C_7
REMARK                            x       y       z     vdW  Elec       q    Type
REMARK                         _______ _______ _______ _____ _____    ______ ____
ROOT
ATOM      1  C   UNL     1      34.868  57.774  59.145  0.00  0.00    +0.000 C 
ATOM      2  C   UNL     1      34.848  56.755  59.868  0.00  0.00    +0.000 C 
ENDROOT
BRANCH   1   6
ATOM      3  O   UNL     1      33.392  59.544  54.982  0.00  0.00    +0.000 OA
ATOM      4  C   UNL     1      34.324  58.794  55.685  0.00  0.00    +0.000 A 
ATOM      5  C   UNL     1      34.242  58.594  57.020  0.00  0.00    +0.000 A 
ATOM      6  C   UNL     1      35.182  57.831  57.758  0.00  0.00    +0.000 A 
ATOM      7  C   UNL     1      36.166  57.325  57.001  0.00  0.00    +0.000 A 
ATOM      8  C   UNL     1      36.333  57.472  55.656  0.00  0.00    +0.000 A 
ATOM      9  O   UNL     1      37.381  56.906  54.995  0.00  0.00    +0.000 OA
ATOM     10  C   UNL     1      35.399  58.218  54.985  0.00  0.00    +0.000 A 
ATOM     11  O   UNL     1      35.494  58.416  53.620  0.00  0.00    +0.000 OA
ENDBRANCH   1   6
BRANCH   2  12
ATOM     12  C   UNL     1      35.141  55.428  59.433  0.00  0.00    +0.000 A 
ATOM     13  C   UNL     1      34.015  54.603  59.202  0.00  0.00    +0.000 A 
ATOM     14  C   UNL     1      34.131  53.309  58.784  0.00  0.00    +0.000 A 
ATOM     15  O   UNL     1      33.001  52.544  58.572  0.00  0.00    +0.000 OA
ATOM     16  C   UNL     1      35.357  52.719  58.559  0.00  0.00    +0.000 A 
ATOM     17  O   UNL     1      35.441  51.409  58.136  0.00  0.00    +0.000 OA
ATOM     18  C   UNL     1      36.494  53.504  58.776  0.00  0.00    +0.000 A 
ATOM     19  O   UNL     1      37.742  52.957  58.564  0.00  0.00    +0.000 OA
ATOM     20  C   UNL     1      36.316  54.798  59.196  0.00  0.00    +0.000 A 
ENDBRANCH   2  12
TORSDOF 2
ENDMDL
MODEL 4
REMARK VINA RESULT:      -6.8     12.407     15.815
REMARK  Name = 
REMARK  2 active torsions:
REMARK  status: ('A' for Active; 'I' for Inactive)
REMARK    1  A    between atoms: C_4  and  C_5
REMARK    2  A    between atoms: C_6  and  C_7
REMARK                            x       y       z     vdW  Elec       q    Type
REMARK                         _______ _______ _______ _____ _____    ______ ____
ROOT
ATOM      1  C   UNL     1      34.823  56.891  59.751  0.00  0.00    +0.000 C 
ATOM      2  C   UNL     1      34.793  57.913  59.033  0.00  0.00    +0.000 C 
ENDROOT
BRANCH   1   6
ATOM      3  O   UNL     1      32.999  52.653  58.587  0.00  0.00    +0.000 OA
ATOM      4  C   UNL     1      34.121  53.449  58.769  0.00  0.00    +0.000 A 
ATOM      5  C   UNL     1      34.043  54.743  59.154  0.00  0.00    +0.000 A 
ATOM      6  C   UNL     1      35.176  55.573  59.346  0.00  0.00    +0.000 A 
ATOM      7  C   UNL     1      36.339  54.949  59.109  0.00  0.00    +0.000 A 
ATOM      8  C   UNL     1      36.517  53.655  58.719  0.00  0.00    +0.000 A 
ATOM      9  O   UNL     1      37.756  53.131  58.507  0.00  0.00    +0.000 OA
ATOM     10  C   UNL     1      35.392  52.890  58.546  0.00  0.00    +0.000 A 
ATOM     11  O   UNL     1      35.485  51.568  58.152  0.00  0.00    +0.000 OA
ENDBRANCH   1   6
BRANCH   2  12
ATOM     12  C   UNL     1      35.112  57.956  57.643  0.00  0.00    +0.000 A 
ATOM     13  C   UNL     1      34.200  58.674  56.833  0.00  0.00    +0.000 A 
ATOM     14  C   UNL     1      34.366  58.805  55.485  0.00  0.00    +0.000 A 
ATOM     15  O   UNL     1      33.449  59.516  54.737  0.00  0.00    +0.000 OA
ATOM     16  C   UNL     1      35.438  58.245  54.821  0.00  0.00    +0.000 A 
ATOM     17  O   UNL     1      35.579  58.396  53.458  0.00  0.00    +0.000 OA
ATOM     18  C   UNL     1      36.361  57.529  55.589  0.00  0.00    +0.000 A 
ATOM     19  O   UNL     1      37.449  56.950  54.970  0.00  0.00    +0.000 OA
ATOM     20  C   UNL     1      36.142  57.430  56.940  0.00  0.00    +0.000 A 
ENDBRANCH   2  12
TORSDOF 2
ENDMDL
MODEL 5
REMARK VINA RESULT:      -6.7     12.341     15.016
REMARK  Name = 
REMARK  2 active torsions:
REMARK  status: ('A' for Active; 'I' for Inactive)
REMARK    1  A    between atoms: C_4  and  C_5
REMARK    2  A    between atoms: C_6  and  C_7
REMARK                            x       y       z     vdW  Elec       q    Type
REMARK                         _______ _______ _______ _____ _____    ______ ____
ROOT
ATOM      1  C   UNL     1      35.151  57.918  59.233  0.00  0.00    +0.000 C 
ATOM      2  C   UNL     1      34.991  56.910  59.954  0.00  0.00    +0.000 C 
ENDROOT
BRANCH   1   6
ATOM      3  O   UNL     1      33.315  59.542  55.154  0.00  0.00    +0.000 OA
ATOM      4  C   UNL     1      34.312  58.825  55.800  0.00  0.00    +0.000 A 
ATOM      5  C   UNL     1      34.342  58.665  57.143  0.00  0.00    +0.000 A 
ATOM      6  C   UNL     1      35.350  57.937  57.823  0.00  0.00    +0.000 A 
ATOM      7  C   UNL     1      36.277  57.420  57.004  0.00  0.00    +0.000 A 
ATOM      8  C   UNL     1      36.331  57.528  55.646  0.00  0.00    +0.000 A 
ATOM      9  O   UNL     1      37.330  56.955  54.918  0.00  0.00    +0.000 OA
ATOM     10  C   UNL     1      35.334  58.241  55.032  0.00  0.00    +0.000 A 
ATOM     11  O   UNL     1      35.316  58.398  53.658  0.00  0.00    +0.000 OA
ENDBRANCH   1   6
BRANCH   2  12
ATOM     12  C   UNL     1      34.978  55.560  59.495  0.00  0.00    +0.000 A 
ATOM     13  C   UNL     1      36.251  54.976  59.291  0.00  0.00    +0.000 A 
ATOM     14  C   UNL     1      36.404  53.692  58.853  0.00  0.00    +0.000 A 
ATOM     15  O   UNL     1      37.668  53.167  58.670  0.00  0.00    +0.000 OA
ATOM     16  C   UNL     1      35.325  52.877  58.581  0.00  0.00    +0.000 A 
ATOM     17  O   UNL     1      35.513  51.584  58.140  0.00  0.00    +0.000 OA
ATOM     18  C   UNL     1      34.051  53.420  58.772  0.00  0.00    +0.000 A 
ATOM     19  O   UNL     1      32.941  52.643  58.512  0.00  0.00    +0.000 OA
ATOM     20  C   UNL     1      33.958  54.716  59.212  0.00  0.00    +0.000 A 
ENDBRANCH   2  12
TORSDOF 2
ENDMDL
MODEL 6
REMARK VINA RESULT:      -6.6     12.325     15.718
REMARK  Name = 
REMARK  2 active torsions:
REMARK  status: ('A' for Active; 'I' for Inactive)
REMARK    1  A    between atoms: C_4  and  C_5
REMARK    2  A    between atoms: C_6  and  C_7
REMARK                            x       y       z     vdW  Elec       q    Type
REMARK                         _______ _______ _______ _____ _____    ______ ____
ROOT
ATOM      1  C   UNL     1      34.863  56.918  59.976  0.00  0.00    +0.000 C 
ATOM      2  C   UNL     1      35.026  57.949  59.290  0.00  0.00    +0.000 C 
ENDROOT
BRANCH   1   6
ATOM      3  O   UNL     1      37.686  53.304  58.704  0.00  0.00    +0.000 OA
ATOM      4  C   UNL     1      36.400  53.796  58.881  0.00  0.00    +0.000 A 
ATOM      5  C   UNL     1      36.153  55.051  59.320  0.00  0.00    +0.000 A 
ATOM      6  C   UNL     1      34.849  55.574  59.507  0.00  0.00    +0.000 A 
ATOM      7  C   UNL     1      33.878  54.700  59.205  0.00  0.00    +0.000 A 
ATOM      8  C   UNL     1      34.028  53.421  58.759  0.00  0.00    +0.000 A 
ATOM      9  O   UNL     1      32.957  52.624  58.485  0.00  0.00    +0.000 OA
ATOM     10  C   UNL     1      35.308  52.959  58.593  0.00  0.00    +0.000 A 
ATOM     11  O   UNL     1      35.546  51.673  58.143  0.00  0.00    +0.000 OA
ENDBRANCH   1   6
BRANCH   2  12
ATOM     12  C   UNL     1      35.233  57.980  57.879  0.00  0.00    +0.000 A 
ATOM     13  C   UNL     1      34.257  58.688  57.138  0.00  0.00    +0.000 A 
ATOM     14  C   UNL     1      34.315  58.807  55.779  0.00  0.00    +0.000 A 
ATOM     15  O   UNL     1      33.339  59.509  55.101  0.00  0.00    +0.000 OA
ATOM     16  C   UNL     1      35.332  58.242  55.038  0.00  0.00    +0.000 A 
ATOM     17  O   UNL     1      35.363  58.380  53.666  0.00  0.00    +0.000 OA
ATOM     18  C   UNL     1      36.315  57.534  55.737  0.00  0.00    +0.000 A 
ATOM     19  O   UNL     1      37.352  56.952  55.038  0.00  0.00    +0.000 OA
ATOM     20  C   UNL     1      36.205  57.448  57.101  0.00  0.00    +0.000 A 
ENDBRANCH   2  12
TORSDOF 2
ENDMDL
MODEL 7
REMARK VINA RESULT:      -6.1     12.282     14.753
REMARK  Name = 
REMARK  2 active torsions:
REMARK  status: ('A' for Active; 'I' for Inactive)
REMARK    1  A    between atoms: C_4  and  C_5
REMARK    2  A    between atoms: C_6  and  C_7
REMARK                            x       y       z     vdW  Elec       q    Type
REMARK                         _______ _______ _______ _____ _____    ______ ____
ROOT
ATOM      1  C   UNL     1      38.206  55.199  60.885  0.00  0.00    +0.000 C 
ATOM      2  C   UNL     1      39.444  55.090  61.014  0.00  0.00    +0.000 C 
ENDROOT
BRANCH   1   6
ATOM      3  O   UNL     1      35.020  52.054  62.499  0.00  0.00    +0.000 OA
ATOM      4  C   UNL     1      35.688  52.614  61.419  0.00  0.00    +0.000 A 
ATOM      5  C   UNL     1      36.604  53.599  61.559  0.00  0.00    +0.000 A 
ATOM      6  C   UNL     1      37.298  54.184  60.470  0.00  0.00    +0.000 A 
ATOM      7  C   UNL     1      36.958  53.665  59.282  0.00  0.00    +0.000 A 
ATOM      8  C   UNL     1      36.051  52.675  59.043  0.00  0.00    +0.000 A 
ATOM      9  O   UNL     1      35.789  52.229  57.782  0.00  0.00    +0.000 OA
ATOM     10  C   UNL     1      35.405  52.140  60.126  0.00  0.00    +0.000 A 
ATOM     11  O   UNL     1      34.470  51.132  59.970  0.00  0.00    +0.000 OA
ENDBRANCH   1   6
BRANCH   2  12
ATOM     12  C   UNL     1      40.200  53.906  60.766  0.00  0.00    +0.000 A 
ATOM     13  C   UNL     1      40.665  53.750  59.438  0.00  0.00    +0.000 A 
ATOM     14  C   UNL     1      41.401  52.670  59.044  0.00  0.00    +0.000 A 
ATOM     15  O   UNL     1      41.832  52.564  57.737  0.00  0.00    +0.000 OA
ATOM     16  C   UNL     1      41.740  51.657  59.916  0.00  0.00    +0.000 A 
ATOM     17  O   UNL     1      42.485  50.579  59.487  0.00  0.00    +0.000 OA
ATOM     18  C   UNL     1      41.298  51.777  61.238  0.00  0.00    +0.000 A 
ATOM     19  O   UNL     1      41.613  50.788  62.146  0.00  0.00    +0.000 OA
ATOM     20  C   UNL     1      40.562  52.884  61.577  0.00  0.00    +0.000 A 
ENDBRANCH   2  12
TORSDOF 2
ENDMDL
MODEL 8
REMARK VINA RESULT:      -6.1     12.269     14.615
REMARK  Name = 
REMARK  2 active torsions:
REMARK  status: ('A' for Active; 'I' for Inactive)
REMARK    1  A    between atoms: C_4  and  C_5
REMARK    2  A    between atoms: C_6  and  C_7
REMARK                            x       y       z     vdW  Elec       q    Type
REMARK                         _______ _______ _______ _____ _____    ______ ____
ROOT
ATOM      1  C   UNL     1      39.404  55.113  61.019  0.00  0.00    +0.000 C 
ATOM      2  C   UNL     1      38.168  55.239  60.885  0.00  0.00    +0.000 C 
ENDROOT
BRANCH   1   6
ATOM      3  O   UNL     1      41.852  52.610  57.796  0.00  0.00    +0.000 OA
ATOM      4  C   UNL     1      41.393  52.732  59.100  0.00  0.00    +0.000 A 
ATOM      5  C   UNL     1      40.645  53.780  59.515  0.00  0.00    +0.000 A 
ATOM      6  C   UNL     1      40.166  53.924  60.841  0.00  0.00    +0.000 A 
ATOM      7  C   UNL     1      40.527  52.917  61.650  0.00  0.00    +0.000 A 
ATOM      8  C   UNL     1      41.276  51.825  61.324  0.00  0.00    +0.000 A 
ATOM      9  O   UNL     1      41.580  50.863  62.239  0.00  0.00    +0.000 OA
ATOM     10  C   UNL     1      41.717  51.729  60.030  0.00  0.00    +0.000 A 
ATOM     11  O   UNL     1      42.481  50.652  59.618  0.00  0.00    +0.000 OA
ENDBRANCH   1   6
BRANCH   2  12
ATOM     12  C   UNL     1      37.266  54.195  60.521  0.00  0.00    +0.000 A 
ATOM     13  C   UNL     1      36.571  53.592  61.596  0.00  0.00    +0.000 A 
ATOM     14  C   UNL     1      35.675  52.580  61.410  0.00  0.00    +0.000 A 
ATOM     15  O   UNL     1      35.021  52.024  62.491  0.00  0.00    +0.000 OA
ATOM     16  C   UNL     1      35.387  52.077  60.158  0.00  0.00    +0.000 A 
ATOM     17  O   UNL     1      34.475  51.053  60.003  0.00  0.00    +0.000 OA
ATOM     18  C   UNL     1      36.055  52.649  59.071  0.00  0.00    +0.000 A 
ATOM     19  O   UNL     1      35.800  52.179  57.800  0.00  0.00    +0.000 OA
ATOM     20  C   UNL     1      36.945  53.663  59.318  0.00  0.00    +0.000 A 
ENDBRANCH   2  12
TORSDOF 2
ENDMDL
MODEL 9
REMARK VINA RESULT:      -6.0     13.274     15.943
REMARK  Name = 
REMARK  2 active torsions:
REMARK  status: ('A' for Active; 'I' for Inactive)
REMARK    1  A    between atoms: C_4  and  C_5
REMARK    2  A    between atoms: C_6  and  C_7
REMARK                            x       y       z     vdW  Elec       q    Type
REMARK                         _______ _______ _______ _____ _____    ______ ____
ROOT
ATOM      1  C   UNL     1      34.634  57.461  59.363  0.00  0.00    +0.000 C 
ATOM      2  C   UNL     1      34.843  56.413  60.010  0.00  0.00    +0.000 C 
ENDROOT
BRANCH   1   6
ATOM      3  O   UNL     1      38.085  60.430  57.978  0.00  0.00    +0.000 OA
ATOM      4  C   UNL     1      37.136  59.477  57.636  0.00  0.00    +0.000 A 
ATOM      5  C   UNL     1      36.328  58.892  58.549  0.00  0.00    +0.000 A 
ATOM      6  C   UNL     1      35.352  57.917  58.222  0.00  0.00    +0.000 A 
ATOM      7  C   UNL     1      35.307  57.629  56.913  0.00  0.00    +0.000 A 
ATOM      8  C   UNL     1      36.076  58.163  55.923  0.00  0.00    +0.000 A 
ATOM      9  O   UNL     1      35.937  57.787  54.621  0.00  0.00    +0.000 OA
ATOM     10  C   UNL     1      37.007  59.102  56.287  0.00  0.00    +0.000 A 
ATOM     11  O   UNL     1      37.827  59.692  55.344  0.00  0.00    +0.000 OA
ENDBRANCH   1   6
BRANCH   2  12
ATOM     12  C   UNL     1      35.861  55.454  59.725  0.00  0.00    +0.000 A 
ATOM     13  C   UNL     1      35.442  54.332  58.971  0.00  0.00    +0.000 A 
ATOM     14  C   UNL     1      36.298  53.329  58.618  0.00  0.00    +0.000 A 
ATOM     15  O   UNL     1      35.842  52.254  57.881  0.00  0.00    +0.000 OA
ATOM     16  C   UNL     1      37.630  53.343  58.975  0.00  0.00    +0.000 A 
ATOM     17  O   UNL     1      38.469  52.314  58.602  0.00  0.00    +0.000 OA
ATOM     18  C   UNL     1      38.080  54.437  59.720  0.00  0.00    +0.000 A 
ATOM     19  O   UNL     1      39.405  54.495  60.100  0.00  0.00    +0.000 OA
ATOM     20  C   UNL     1      37.175  55.415  60.046  0.00  0.00    +0.000 A 
ENDBRANCH   2  12
TORSDOF 2
ENDMDL
MODEL 10
REMARK VINA RESULT:      -6.0     12.196     14.617
REMARK  Name = 
REMARK  2 active torsions:
REMARK  status: ('A' for Active; 'I' for Inactive)
REMARK    1  A    between atoms: C_4  and  C_5
REMARK    2  A    between atoms: C_6  and  C_7
REMARK                            x       y       z     vdW  Elec       q    Type
REMARK                         _______ _______ _______ _____ _____    ______ ____
ROOT
ATOM      1  C   UNL     1      37.903  55.209  60.965  0.00  0.00    +0.000 C 
ATOM      2  C   UNL     1      39.151  55.209  61.027  0.00  0.00    +0.000 C 
ENDROOT
BRANCH   1   6
ATOM      3  O   UNL     1      34.968  51.777  62.466  0.00  0.00    +0.000 OA
ATOM      4  C   UNL     1      35.587  52.426  61.407  0.00  0.00    +0.000 A 
ATOM      5  C   UNL     1      36.427  53.470  61.581  0.00  0.00    +0.000 A 
ATOM      6  C   UNL     1      37.071  54.146  60.514  0.00  0.00    +0.000 A 
ATOM      7  C   UNL     1      36.764  53.648  59.308  0.00  0.00    +0.000 A 
ATOM      8  C   UNL     1      35.932  52.604  59.033  0.00  0.00    +0.000 A 
ATOM      9  O   UNL     1      35.696  52.187  57.758  0.00  0.00    +0.000 OA
ATOM     10  C   UNL     1      35.332  51.981  60.098  0.00  0.00    +0.000 A 
ATOM     11  O   UNL     1      34.474  50.914  59.905  0.00  0.00    +0.000 OA
ENDBRANCH   1   6
BRANCH   2  12
ATOM     12  C   UNL     1      39.997  54.124  60.651  0.00  0.00    +0.000 A 
ATOM     13  C   UNL     1      40.372  53.254  61.703  0.00  0.00    +0.000 A 
ATOM     14  C   UNL     1      41.178  52.171  61.503  0.00  0.00    +0.000 A 
ATOM     15  O   UNL     1      41.515  51.352  62.562  0.00  0.00    +0.000 OA
ATOM     16  C   UNL     1      41.682  51.853  60.259  0.00  0.00    +0.000 A 
ATOM     17  O   UNL     1      42.494  50.751  60.090  0.00  0.00    +0.000 OA
ATOM     18  C   UNL     1      41.332  52.690  59.195  0.00  0.00    +0.000 A 
ATOM     19  O   UNL     1      41.812  52.411  57.932  0.00  0.00    +0.000 OA
ATOM     20  C   UNL     1      40.520  53.764  59.455  0.00  0.00    +0.000 A 
ENDBRANCH   2  12
TORSDOF 2
ENDMDL
