REMARK  Name = 
REMARK  4 active torsions:
REMARK  status: ('A' for Active; 'I' for Inactive)
REMARK    1  A    between atoms: O_2  and  C_3
REMARK    2  A    between atoms: C_6  and  C_7
REMARK    3  A    between atoms: C_8  and  C_9
REMARK    4  A    between atoms: C_11  and  O_12
REMARK                            x       y       z     vdW  Elec       q    Type
REMARK                         _______ _______ _______ _____ _____    ______ ____
ROOT
ATOM      1  C   UNL     1      -1.064  -2.240  -0.753  0.00  0.00    +0.000 C 
ATOM      2  C   UNL     1       0.151  -2.310  -0.470  0.00  0.00    +0.000 C 
ENDROOT
BRANCH   2   3
ATOM      3  C   UNL     1       1.058  -1.304  -0.018  0.00  0.00    +0.000 A 
ATOM      4  C   UNL     1       2.361  -1.800   0.190  0.00  0.00    +0.000 A 
ATOM      5  C   UNL     1       3.369  -0.985   0.624  0.00  0.00    +0.000 A 
ATOM      6  C   UNL     1       3.113   0.347   0.864  0.00  0.00    +0.000 A 
ATOM      7  C   UNL     1       1.835   0.878   0.670  0.00  0.00    +0.000 A 
ATOM      8  C   UNL     1       0.869   0.010   0.235  0.00  0.00    +0.000 A 
ATOM      9  O   UNL     1       1.887   2.228   0.991  0.00  0.00    +0.000 OA
ATOM     10  C   UNL     1       3.257   2.582   0.991  0.00  0.00    +0.000 C 
ATOM     11  O   UNL     1       3.953   1.363   1.302  0.00  0.00    +0.000 OA
BRANCH   5  12
ATOM     12  O   UNL     1       4.654  -1.460   0.832  0.00  0.00    +0.000 OA
ATOM     13  C   UNL     1       5.054  -2.782   0.629  0.00  0.00    +0.000 C 
ENDBRANCH   5  12
ENDBRANCH   2   3
BRANCH   1  17
ATOM     14  C   UNL     1      -3.617   1.091  -0.623  0.00  0.00    +0.000 A 
ATOM     15  C   UNL     1      -2.292   1.295  -0.250  0.00  0.00    +0.000 A 
ATOM     16  C   UNL     1      -1.455   0.221  -0.289  0.00  0.00    +0.000 A 
ATOM     17  C   UNL     1      -1.813  -1.024  -0.660  0.00  0.00    +0.000 A 
ATOM     18  C   UNL     1      -3.164  -1.195  -1.032  0.00  0.00    +0.000 A 
ATOM     19  C   UNL     1      -4.051  -0.156  -1.013  0.00  0.00    +0.000 A 
ATOM     20  N   UNL     1      -5.407  -0.343  -1.389  0.00  0.00    +0.000 NA
BRANCH  14  22
ATOM     21  C   UNL     1      -4.198   3.448  -0.229  0.00  0.00    +0.000 C 
ATOM     22  O   UNL     1      -4.500   2.138  -0.602  0.00  0.00    +0.000 OA
ENDBRANCH  14  22
ENDBRANCH   1  17
TORSDOF 4
