MODEL 1
REMARK VINA RESULT:      -6.2      0.000      0.000
REMARK  Name = 
REMARK  9 active torsions:
REMARK  status: ('A' for Active; 'I' for Inactive)
REMARK    1  A    between atoms: O_2  and  C_3
REMARK    2  A    between atoms: C_6  and  C_7
REMARK    3  A    between atoms: C_8  and  C_9
REMARK    4  A    between atoms: C_11  and  O_12
REMARK    5  A    between atoms: C_14  and  O_15
REMARK    6  A    between atoms: C_17  and  O_18
REMARK    7  A    between atoms: C_22  and  O_23
REMARK    8  A    between atoms: O_23  and  C_24
REMARK    9  A    between atoms: C_24  and  C_25
REMARK                            x       y       z     vdW  Elec       q    Type
REMARK                         _______ _______ _______ _____ _____    ______ ____
ROOT
ATOM      1  C   UNL     1      35.666  55.743  58.585  0.00  0.00    +0.000 C 
ATOM      2  C   UNL     1      36.249  56.364  57.600  0.00  0.00    +0.000 C 
ENDROOT
BRANCH   1   6
ATOM      3  C   UNL     1      37.945  52.892  60.785  0.00  0.00    +0.000 A 
ATOM      4  C   UNL     1      37.024  53.700  61.420  0.00  0.00    +0.000 A 
ATOM      5  C   UNL     1      36.293  54.614  60.718  0.00  0.00    +0.000 A 
ATOM      6  C   UNL     1      36.454  54.756  59.351  0.00  0.00    +0.000 A 
ATOM      7  C   UNL     1      37.382  53.935  58.748  0.00  0.00    +0.000 A 
ATOM      8  C   UNL     1      38.135  53.006  59.413  0.00  0.00    +0.000 A 
BRANCH   3  10
ATOM      9  C   UNL     1      38.021  50.915  62.180  0.00  0.00    +0.000 C 
ATOM     10  O   UNL     1      38.698  51.951  61.511  0.00  0.00    +0.000 OA
ENDBRANCH   3  10
BRANCH   8  11
ATOM     11  O   UNL     1      39.065  52.176  58.831  0.00  0.00    +0.000 OA
BRANCH  11  12
ATOM     12  C   UNL     1      39.950  52.537  57.814  0.00  0.00    +0.000 C 
BRANCH  12  13
ATOM     13  C   UNL     1      41.279  52.783  58.393  0.00  0.00    +0.000 C 
ATOM     14  O   UNL     1      42.258  52.131  57.949  0.00  0.00    +0.000 OA
ATOM     15  O   UNL     1      41.483  53.702  59.402  0.00  0.00    +0.000 OA
ENDBRANCH  12  13
ENDBRANCH  11  12
ENDBRANCH   8  11
ENDBRANCH   1   6
BRANCH   2  16
ATOM     16  C   UNL     1      35.635  57.359  56.744  0.00  0.00    +0.000 A 
ATOM     17  C   UNL     1      35.960  57.596  55.447  0.00  0.00    +0.000 A 
ATOM     18  C   UNL     1      35.296  58.587  54.717  0.00  0.00    +0.000 A 
ATOM     19  C   UNL     1      34.291  59.340  55.316  0.00  0.00    +0.000 A 
ATOM     20  C   UNL     1      33.958  59.102  56.632  0.00  0.00    +0.000 A 
ATOM     21  C   UNL     1      34.623  58.133  57.313  0.00  0.00    +0.000 A 
BRANCH  18  22
ATOM     22  O   UNL     1      35.607  58.852  53.389  0.00  0.00    +0.000 OA
ATOM     23  C   UNL     1      36.941  59.179  53.067  0.00  0.00    +0.000 C 
ENDBRANCH  18  22
BRANCH  19  24
ATOM     24  O   UNL     1      33.618  60.332  54.602  0.00  0.00    +0.000 OA
ATOM     25  C   UNL     1      34.196  61.634  54.651  0.00  0.00    +0.000 C 
ENDBRANCH  19  24
BRANCH  20  26
ATOM     26  O   UNL     1      32.942  59.878  57.203  0.00  0.00    +0.000 OA
ATOM     27  C   UNL     1      33.220  60.774  58.266  0.00  0.00    +0.000 C 
ENDBRANCH  20  26
ENDBRANCH   2  16
TORSDOF 9
ENDMDL
MODEL 2
REMARK VINA RESULT:      -6.1      1.826      8.936
REMARK  Name = 
REMARK  9 active torsions:
REMARK  status: ('A' for Active; 'I' for Inactive)
REMARK    1  A    between atoms: O_2  and  C_3
REMARK    2  A    between atoms: C_6  and  C_7
REMARK    3  A    between atoms: C_8  and  C_9
REMARK    4  A    between atoms: C_11  and  O_12
REMARK    5  A    between atoms: C_14  and  O_15
REMARK    6  A    between atoms: C_17  and  O_18
REMARK    7  A    between atoms: C_22  and  O_23
REMARK    8  A    between atoms: O_23  and  C_24
REMARK    9  A    between atoms: C_24  and  C_25
REMARK                            x       y       z     vdW  Elec       q    Type
REMARK                         _______ _______ _______ _____ _____    ______ ____
ROOT
ATOM      1  C   UNL     1      36.155  56.726  58.121  0.00  0.00    +0.000 C 
ATOM      2  C   UNL     1      36.119  55.448  57.875  0.00  0.00    +0.000 C 
ENDROOT
BRANCH   1   6
ATOM      3  C   UNL     1      33.886  59.321  55.615  0.00  0.00    +0.000 A 
ATOM      4  C   UNL     1      33.468  59.037  56.899  0.00  0.00    +0.000 A 
ATOM      5  C   UNL     1      34.192  58.206  57.703  0.00  0.00    +0.000 A 
ATOM      6  C   UNL     1      35.366  57.626  57.255  0.00  0.00    +0.000 A 
ATOM      7  C   UNL     1      35.754  57.929  55.969  0.00  0.00    +0.000 A 
ATOM      8  C   UNL     1      35.059  58.756  55.129  0.00  0.00    +0.000 A 
BRANCH   3  10
ATOM      9  C   UNL     1      31.798  60.445  55.127  0.00  0.00    +0.000 C 
ATOM     10  O   UNL     1      33.137  60.177  54.787  0.00  0.00    +0.000 OA
ENDBRANCH   3  10
BRANCH   8  11
ATOM     11  O   UNL     1      35.429  59.072  53.842  0.00  0.00    +0.000 OA
BRANCH  11  12
ATOM     12  C   UNL     1      36.557  59.811  53.482  0.00  0.00    +0.000 C 
BRANCH  12  13
ATOM     13  C   UNL     1      36.422  61.182  53.994  0.00  0.00    +0.000 C 
ATOM     14  O   UNL     1      37.191  61.557  54.916  0.00  0.00    +0.000 OA
ATOM     15  O   UNL     1      35.483  62.064  53.498  0.00  0.00    +0.000 OA
ENDBRANCH  12  13
ENDBRANCH  11  12
ENDBRANCH   8  11
ENDBRANCH   1   6
BRANCH   2  16
ATOM     16  C   UNL     1      36.826  54.423  58.615  0.00  0.00    +0.000 A 
ATOM     17  C   UNL     1      38.015  54.583  59.251  0.00  0.00    +0.000 A 
ATOM     18  C   UNL     1      38.605  53.515  59.936  0.00  0.00    +0.000 A 
ATOM     19  C   UNL     1      37.974  52.276  59.973  0.00  0.00    +0.000 A 
ATOM     20  C   UNL     1      36.767  52.110  59.330  0.00  0.00    +0.000 A 
ATOM     21  C   UNL     1      36.221  53.166  58.672  0.00  0.00    +0.000 A 
BRANCH  18  22
ATOM     22  O   UNL     1      39.820  53.650  60.596  0.00  0.00    +0.000 OA
ATOM     23  C   UNL     1      40.022  54.793  61.398  0.00  0.00    +0.000 C 
ENDBRANCH  18  22
BRANCH  19  24
ATOM     24  O   UNL     1      38.549  51.201  60.652  0.00  0.00    +0.000 OA
ATOM     25  C   UNL     1      39.416  50.371  59.883  0.00  0.00    +0.000 C 
ENDBRANCH  19  24
BRANCH  20  26
ATOM     26  O   UNL     1      36.161  50.849  59.387  0.00  0.00    +0.000 OA
ATOM     27  C   UNL     1      34.985  50.640  60.151  0.00  0.00    +0.000 C 
ENDBRANCH  20  26
ENDBRANCH   2  16
TORSDOF 9
ENDMDL
MODEL 3
REMARK VINA RESULT:      -6.1      8.143     12.216
REMARK  Name = 
REMARK  9 active torsions:
REMARK  status: ('A' for Active; 'I' for Inactive)
REMARK    1  A    between atoms: O_2  and  C_3
REMARK    2  A    between atoms: C_6  and  C_7
REMARK    3  A    between atoms: C_8  and  C_9
REMARK    4  A    between atoms: C_11  and  O_12
REMARK    5  A    between atoms: C_14  and  O_15
REMARK    6  A    between atoms: C_17  and  O_18
REMARK    7  A    between atoms: C_22  and  O_23
REMARK    8  A    between atoms: O_23  and  C_24
REMARK    9  A    between atoms: C_24  and  C_25
REMARK                            x       y       z     vdW  Elec       q    Type
REMARK                         _______ _______ _______ _____ _____    ______ ____
ROOT
ATOM      1  C   UNL     1      33.033  46.490  62.156  0.00  0.00    +0.000 C 
ATOM      2  C   UNL     1      32.930  47.787  62.151  0.00  0.00    +0.000 C 
ENDROOT
BRANCH   1   6
ATOM      3  C   UNL     1      29.442  44.197  62.086  0.00  0.00    +0.000 A 
ATOM      4  C   UNL     1      30.648  43.630  61.728  0.00  0.00    +0.000 A 
ATOM      5  C   UNL     1      31.799  44.362  61.749  0.00  0.00    +0.000 A 
ATOM      6  C   UNL     1      31.790  45.692  62.130  0.00  0.00    +0.000 A 
ATOM      7  C   UNL     1      30.570  46.227  62.481  0.00  0.00    +0.000 A 
ATOM      8  C   UNL     1      29.393  45.530  62.474  0.00  0.00    +0.000 A 
BRANCH   3  10
ATOM      9  C   UNL     1      28.317  42.076  62.401  0.00  0.00    +0.000 C 
ATOM     10  O   UNL     1      28.255  43.441  62.063  0.00  0.00    +0.000 OA
ENDBRANCH   3  10
BRANCH   8  11
ATOM     11  O   UNL     1      28.165  46.046  62.821  0.00  0.00    +0.000 OA
BRANCH  11  12
ATOM     12  C   UNL     1      27.337  46.800  61.988  0.00  0.00    +0.000 C 
BRANCH  12  13
ATOM     13  C   UNL     1      27.477  48.223  62.328  0.00  0.00    +0.000 C 
ATOM     14  O   UNL     1      26.553  48.780  62.973  0.00  0.00    +0.000 OA
ATOM     15  O   UNL     1      28.585  48.961  61.963  0.00  0.00    +0.000 OA
ENDBRANCH  12  13
ENDBRANCH  11  12
ENDBRANCH   8  11
ENDBRANCH   1   6
BRANCH   2  16
ATOM     16  C   UNL     1      34.035  48.725  62.174  0.00  0.00    +0.000 A 
ATOM     17  C   UNL     1      34.799  49.022  63.257  0.00  0.00    +0.000 A 
ATOM     18  C   UNL     1      35.842  49.948  63.159  0.00  0.00    +0.000 A 
ATOM     19  C   UNL     1      36.109  50.574  61.945  0.00  0.00    +0.000 A 
ATOM     20  C   UNL     1      35.336  50.274  60.844  0.00  0.00    +0.000 A 
ATOM     21  C   UNL     1      34.330  49.371  60.973  0.00  0.00    +0.000 A 
BRANCH  18  22
ATOM     22  O   UNL     1      36.640  50.272  64.249  0.00  0.00    +0.000 OA
ATOM     23  C   UNL     1      36.045  50.298  65.529  0.00  0.00    +0.000 C 
ENDBRANCH  18  22
BRANCH  19  24
ATOM     24  O   UNL     1      37.146  51.499  61.830  0.00  0.00    +0.000 OA
ATOM     25  C   UNL     1      36.812  52.850  62.141  0.00  0.00    +0.000 C 
ENDBRANCH  19  24
BRANCH  20  26
ATOM     26  O   UNL     1      35.632  50.922  59.639  0.00  0.00    +0.000 OA
ATOM     27  C   UNL     1      34.742  51.878  59.088  0.00  0.00    +0.000 C 
ENDBRANCH  20  26
ENDBRANCH   2  16
TORSDOF 9
ENDMDL
MODEL 4
REMARK VINA RESULT:      -6.1      0.391      2.525
REMARK  Name = 
REMARK  9 active torsions:
REMARK  status: ('A' for Active; 'I' for Inactive)
REMARK    1  A    between atoms: O_2  and  C_3
REMARK    2  A    between atoms: C_6  and  C_7
REMARK    3  A    between atoms: C_8  and  C_9
REMARK    4  A    between atoms: C_11  and  O_12
REMARK    5  A    between atoms: C_14  and  O_15
REMARK    6  A    between atoms: C_17  and  O_18
REMARK    7  A    between atoms: C_22  and  O_23
REMARK    8  A    between atoms: O_23  and  C_24
REMARK    9  A    between atoms: C_24  and  C_25
REMARK                            x       y       z     vdW  Elec       q    Type
REMARK                         _______ _______ _______ _____ _____    ______ ____
ROOT
ATOM      1  C   UNL     1      35.691  55.544  58.721  0.00  0.00    +0.000 C 
ATOM      2  C   UNL     1      36.195  56.435  57.917  0.00  0.00    +0.000 C 
ENDROOT
BRANCH   1   6
ATOM      3  C   UNL     1      38.368  52.905  60.728  0.00  0.00    +0.000 A 
ATOM      4  C   UNL     1      37.500  53.706  61.441  0.00  0.00    +0.000 A 
ATOM      5  C   UNL     1      36.642  54.551  60.801  0.00  0.00    +0.000 A 
ATOM      6  C   UNL     1      36.617  54.631  59.420  0.00  0.00    +0.000 A 
ATOM      7  C   UNL     1      37.497  53.819  58.738  0.00  0.00    +0.000 A 
ATOM      8  C   UNL     1      38.374  52.957  59.339  0.00  0.00    +0.000 A 
BRANCH   3  10
ATOM      9  C   UNL     1      38.730  50.893  62.025  0.00  0.00    +0.000 C 
ATOM     10  O   UNL     1      39.253  52.034  61.389  0.00  0.00    +0.000 OA
ENDBRANCH   3  10
BRANCH   8  11
ATOM     11  O   UNL     1      39.259  52.138  58.677  0.00  0.00    +0.000 OA
BRANCH  11  12
ATOM     12  C   UNL     1      40.192  52.553  57.725  0.00  0.00    +0.000 C 
BRANCH  12  13
ATOM     13  C   UNL     1      41.524  52.609  58.345  0.00  0.00    +0.000 C 
ATOM     14  O   UNL     1      41.781  53.555  59.132  0.00  0.00    +0.000 OA
ATOM     15  O   UNL     1      42.493  51.659  58.092  0.00  0.00    +0.000 OA
ENDBRANCH  12  13
ENDBRANCH  11  12
ENDBRANCH   8  11
ENDBRANCH   1   6
BRANCH   2  16
ATOM     16  C   UNL     1      35.443  57.408  57.151  0.00  0.00    +0.000 A 
ATOM     17  C   UNL     1      34.403  58.148  57.615  0.00  0.00    +0.000 A 
ATOM     18  C   UNL     1      33.750  59.059  56.779  0.00  0.00    +0.000 A 
ATOM     19  C   UNL     1      34.164  59.217  55.460  0.00  0.00    +0.000 A 
ATOM     20  C   UNL     1      35.218  58.468  54.986  0.00  0.00    +0.000 A 
ATOM     21  C   UNL     1      35.831  57.591  55.823  0.00  0.00    +0.000 A 
BRANCH  18  22
ATOM     22  O   UNL     1      32.684  59.831  57.226  0.00  0.00    +0.000 OA
ATOM     23  C   UNL     1      32.695  60.273  58.566  0.00  0.00    +0.000 C 
ENDBRANCH  18  22
BRANCH  19  24
ATOM     24  O   UNL     1      33.523  60.122  54.613  0.00  0.00    +0.000 OA
ATOM     25  C   UNL     1      34.012  61.461  54.649  0.00  0.00    +0.000 C 
ENDBRANCH  19  24
BRANCH  20  26
ATOM     26  O   UNL     1      35.607  58.652  53.653  0.00  0.00    +0.000 OA
ATOM     27  C   UNL     1      36.939  59.008  53.326  0.00  0.00    +0.000 C 
ENDBRANCH  20  26
ENDBRANCH   2  16
TORSDOF 9
ENDMDL
MODEL 5
REMARK VINA RESULT:      -6.1      1.765      8.973
REMARK  Name = 
REMARK  9 active torsions:
REMARK  status: ('A' for Active; 'I' for Inactive)
REMARK    1  A    between atoms: O_2  and  C_3
REMARK    2  A    between atoms: C_6  and  C_7
REMARK    3  A    between atoms: C_8  and  C_9
REMARK    4  A    between atoms: C_11  and  O_12
REMARK    5  A    between atoms: C_14  and  O_15
REMARK    6  A    between atoms: C_17  and  O_18
REMARK    7  A    between atoms: C_22  and  O_23
REMARK    8  A    between atoms: O_23  and  C_24
REMARK    9  A    between atoms: C_24  and  C_25
REMARK                            x       y       z     vdW  Elec       q    Type
REMARK                         _______ _______ _______ _____ _____    ______ ____
ROOT
ATOM      1  C   UNL     1      36.242  56.723  57.856  0.00  0.00    +0.000 C 
ATOM      2  C   UNL     1      35.935  55.459  57.837  0.00  0.00    +0.000 C 
ENDROOT
BRANCH   1   6
ATOM      3  C   UNL     1      33.786  59.426  55.661  0.00  0.00    +0.000 A 
ATOM      4  C   UNL     1      33.471  59.084  56.960  0.00  0.00    +0.000 A 
ATOM      5  C   UNL     1      34.256  58.219  57.665  0.00  0.00    +0.000 A 
ATOM      6  C   UNL     1      35.388  57.660  57.099  0.00  0.00    +0.000 A 
ATOM      7  C   UNL     1      35.673  58.022  55.800  0.00  0.00    +0.000 A 
ATOM      8  C   UNL     1      34.915  58.885  55.057  0.00  0.00    +0.000 A 
BRANCH   3  10
ATOM      9  C   UNL     1      31.605  60.393  55.247  0.00  0.00    +0.000 C 
ATOM     10  O   UNL     1      32.975  60.318  54.935  0.00  0.00    +0.000 OA
ENDBRANCH   3  10
BRANCH   8  11
ATOM     11  O   UNL     1      35.182  59.260  53.761  0.00  0.00    +0.000 OA
BRANCH  11  12
ATOM     12  C   UNL     1      36.299  59.983  53.339  0.00  0.00    +0.000 C 
BRANCH  12  13
ATOM     13  C   UNL     1      36.300  61.298  53.995  0.00  0.00    +0.000 C 
ATOM     14  O   UNL     1      35.463  62.158  53.619  0.00  0.00    +0.000 OA
ATOM     15  O   UNL     1      37.186  61.615  55.005  0.00  0.00    +0.000 OA
ENDBRANCH  12  13
ENDBRANCH  11  12
ENDBRANCH   8  11
ENDBRANCH   1   6
BRANCH   2  16
ATOM     16  C   UNL     1      36.655  54.401  58.518  0.00  0.00    +0.000 A 
ATOM     17  C   UNL     1      36.236  53.116  58.651  0.00  0.00    +0.000 A 
ATOM     18  C   UNL     1      37.019  52.180  59.333  0.00  0.00    +0.000 A 
ATOM     19  C   UNL     1      38.241  52.558  59.881  0.00  0.00    +0.000 A 
ATOM     20  C   UNL     1      38.670  53.861  59.747  0.00  0.00    +0.000 A 
ATOM     21  C   UNL     1      37.885  54.746  59.080  0.00  0.00    +0.000 A 
BRANCH  18  22
ATOM     22  O   UNL     1      36.616  50.859  59.484  0.00  0.00    +0.000 OA
ATOM     23  C   UNL     1      35.489  50.592  60.290  0.00  0.00    +0.000 C 
ENDBRANCH  18  22
BRANCH  19  24
ATOM     24  O   UNL     1      39.035  51.636  60.564  0.00  0.00    +0.000 OA
ATOM     25  C   UNL     1      39.980  50.921  59.771  0.00  0.00    +0.000 C 
ENDBRANCH  19  24
BRANCH  20  26
ATOM     26  O   UNL     1      39.904  54.206  60.312  0.00  0.00    +0.000 OA
ATOM     27  C   UNL     1      39.973  54.856  61.569  0.00  0.00    +0.000 C 
ENDBRANCH  20  26
ENDBRANCH   2  16
TORSDOF 9
ENDMDL
MODEL 6
REMARK VINA RESULT:      -6.1      8.083     12.189
REMARK  Name = 
REMARK  9 active torsions:
REMARK  status: ('A' for Active; 'I' for Inactive)
REMARK    1  A    between atoms: O_2  and  C_3
REMARK    2  A    between atoms: C_6  and  C_7
REMARK    3  A    between atoms: C_8  and  C_9
REMARK    4  A    between atoms: C_11  and  O_12
REMARK    5  A    between atoms: C_14  and  O_15
REMARK    6  A    between atoms: C_17  and  O_18
REMARK    7  A    between atoms: C_22  and  O_23
REMARK    8  A    between atoms: O_23  and  C_24
REMARK    9  A    between atoms: C_24  and  C_25
REMARK                            x       y       z     vdW  Elec       q    Type
REMARK                         _______ _______ _______ _____ _____    ______ ____
ROOT
ATOM      1  C   UNL     1      32.439  47.813  61.743  0.00  0.00    +0.000 C 
ATOM      2  C   UNL     1      33.607  47.793  62.317  0.00  0.00    +0.000 C 
ENDROOT
BRANCH   1   6
ATOM      3  C   UNL     1      29.773  44.571  62.476  0.00  0.00    +0.000 A 
ATOM      4  C   UNL     1      31.039  44.344  61.978  0.00  0.00    +0.000 A 
ATOM      5  C   UNL     1      31.895  45.380  61.742  0.00  0.00    +0.000 A 
ATOM      6  C   UNL     1      31.518  46.687  61.995  0.00  0.00    +0.000 A 
ATOM      7  C   UNL     1      30.247  46.879  62.491  0.00  0.00    +0.000 A 
ATOM      8  C   UNL     1      29.357  45.871  62.742  0.00  0.00    +0.000 A 
BRANCH   3  10
ATOM      9  C   UNL     1      28.247  42.895  61.624  0.00  0.00    +0.000 C 
ATOM     10  O   UNL     1      28.891  43.502  62.718  0.00  0.00    +0.000 OA
ENDBRANCH   3  10
BRANCH   8  11
ATOM     11  O   UNL     1      28.085  46.041  63.238  0.00  0.00    +0.000 OA
BRANCH  11  12
ATOM     12  C   UNL     1      26.997  46.543  62.523  0.00  0.00    +0.000 C 
BRANCH  12  13
ATOM     13  C   UNL     1      26.693  47.902  62.994  0.00  0.00    +0.000 C 
ATOM     14  O   UNL     1      27.376  48.859  62.549  0.00  0.00    +0.000 OA
ATOM     15  O   UNL     1      25.687  48.157  63.904  0.00  0.00    +0.000 OA
ENDBRANCH  12  13
ENDBRANCH  11  12
ENDBRANCH   8  11
ENDBRANCH   1   6
BRANCH   2  16
ATOM     16  C   UNL     1      34.634  48.806  62.184  0.00  0.00    +0.000 A 
ATOM     17  C   UNL     1      34.660  49.790  61.249  0.00  0.00    +0.000 A 
ATOM     18  C   UNL     1      35.708  50.716  61.219  0.00  0.00    +0.000 A 
ATOM     19  C   UNL     1      36.737  50.636  62.152  0.00  0.00    +0.000 A 
ATOM     20  C   UNL     1      36.714  49.639  63.102  0.00  0.00    +0.000 A 
ATOM     21  C   UNL     1      35.682  48.755  63.104  0.00  0.00    +0.000 A 
BRANCH  18  22
ATOM     22  O   UNL     1      35.760  51.733  60.274  0.00  0.00    +0.000 OA
ATOM     23  C   UNL     1      35.800  51.377  58.909  0.00  0.00    +0.000 C 
ENDBRANCH  18  22
BRANCH  19  24
ATOM     24  O   UNL     1      37.790  51.551  62.135  0.00  0.00    +0.000 OA
ATOM     25  C   UNL     1      37.570  52.766  62.849  0.00  0.00    +0.000 C 
ENDBRANCH  19  24
BRANCH  20  26
ATOM     26  O   UNL     1      37.766  49.588  64.025  0.00  0.00    +0.000 OA
ATOM     27  C   UNL     1      37.538  49.827  65.403  0.00  0.00    +0.000 C 
ENDBRANCH  20  26
ENDBRANCH   2  16
TORSDOF 9
ENDMDL
MODEL 7
REMARK VINA RESULT:      -6.0      1.899      9.418
REMARK  Name = 
REMARK  9 active torsions:
REMARK  status: ('A' for Active; 'I' for Inactive)
REMARK    1  A    between atoms: O_2  and  C_3
REMARK    2  A    between atoms: C_6  and  C_7
REMARK    3  A    between atoms: C_8  and  C_9
REMARK    4  A    between atoms: C_11  and  O_12
REMARK    5  A    between atoms: C_14  and  O_15
REMARK    6  A    between atoms: C_17  and  O_18
REMARK    7  A    between atoms: C_22  and  O_23
REMARK    8  A    between atoms: O_23  and  C_24
REMARK    9  A    between atoms: C_24  and  C_25
REMARK                            x       y       z     vdW  Elec       q    Type
REMARK                         _______ _______ _______ _____ _____    ______ ____
ROOT
ATOM      1  C   UNL     1      36.386  56.365  56.433  0.00  0.00    +0.000 C 
ATOM      2  C   UNL     1      36.163  56.129  57.693  0.00  0.00    +0.000 C 
ENDROOT
BRANCH   1   6
ATOM      3  C   UNL     1      34.802  59.947  54.754  0.00  0.00    +0.000 A 
ATOM      4  C   UNL     1      35.718  59.187  54.057  0.00  0.00    +0.000 A 
ATOM      5  C   UNL     1      36.227  58.040  54.592  0.00  0.00    +0.000 A 
ATOM      6  C   UNL     1      35.840  57.606  55.847  0.00  0.00    +0.000 A 
ATOM      7  C   UNL     1      34.924  58.388  56.517  0.00  0.00    +0.000 A 
ATOM      8  C   UNL     1      34.389  59.544  56.018  0.00  0.00    +0.000 A 
BRANCH   3  10
ATOM      9  C   UNL     1      35.154  62.201  53.943  0.00  0.00    +0.000 C 
ATOM     10  O   UNL     1      34.278  61.130  54.200  0.00  0.00    +0.000 OA
ENDBRANCH   3  10
BRANCH   8  11
ATOM     11  O   UNL     1      33.474  60.339  56.669  0.00  0.00    +0.000 OA
BRANCH  11  12
ATOM     12  C   UNL     1      32.160  59.980  56.975  0.00  0.00    +0.000 C 
BRANCH  12  13
ATOM     13  C   UNL     1      31.242  60.687  56.071  0.00  0.00    +0.000 C 
ATOM     14  O   UNL     1      31.142  60.288  54.883  0.00  0.00    +0.000 OA
ATOM     15  O   UNL     1      30.491  61.769  56.484  0.00  0.00    +0.000 OA
ENDBRANCH  12  13
ENDBRANCH  11  12
ENDBRANCH   8  11
ENDBRANCH   1   6
BRANCH   2  16
ATOM     16  C   UNL     1      36.619  54.969  58.432  0.00  0.00    +0.000 A 
ATOM     17  C   UNL     1      37.656  54.946  59.308  0.00  0.00    +0.000 A 
ATOM     18  C   UNL     1      38.006  53.762  59.965  0.00  0.00    +0.000 A 
ATOM     19  C   UNL     1      37.290  52.593  59.726  0.00  0.00    +0.000 A 
ATOM     20  C   UNL     1      36.238  52.613  58.837  0.00  0.00    +0.000 A 
ATOM     21  C   UNL     1      35.924  53.779  58.215  0.00  0.00    +0.000 A 
BRANCH  18  22
ATOM     22  O   UNL     1      39.062  53.709  60.867  0.00  0.00    +0.000 OA
ATOM     23  C   UNL     1      40.349  54.066  60.412  0.00  0.00    +0.000 C 
ENDBRANCH  18  22
BRANCH  19  24
ATOM     24  O   UNL     1      37.627  51.404  60.373  0.00  0.00    +0.000 OA
ATOM     25  C   UNL     1      38.559  50.567  59.692  0.00  0.00    +0.000 C 
ENDBRANCH  19  24
BRANCH  20  26
ATOM     26  O   UNL     1      35.540  51.418  58.620  0.00  0.00    +0.000 OA
ATOM     27  C   UNL     1      34.249  51.218  59.171  0.00  0.00    +0.000 C 
ENDBRANCH  20  26
ENDBRANCH   2  16
TORSDOF 9
ENDMDL
MODEL 8
REMARK VINA RESULT:      -5.9      1.584      3.856
REMARK  Name = 
REMARK  9 active torsions:
REMARK  status: ('A' for Active; 'I' for Inactive)
REMARK    1  A    between atoms: O_2  and  C_3
REMARK    2  A    between atoms: C_6  and  C_7
REMARK    3  A    between atoms: C_8  and  C_9
REMARK    4  A    between atoms: C_11  and  O_12
REMARK    5  A    between atoms: C_14  and  O_15
REMARK    6  A    between atoms: C_17  and  O_18
REMARK    7  A    between atoms: C_22  and  O_23
REMARK    8  A    between atoms: O_23  and  C_24
REMARK    9  A    between atoms: C_24  and  C_25
REMARK                            x       y       z     vdW  Elec       q    Type
REMARK                         _______ _______ _______ _____ _____    ______ ____
ROOT
ATOM      1  C   UNL     1      35.867  55.310  58.206  0.00  0.00    +0.000 C 
ATOM      2  C   UNL     1      36.378  56.108  57.314  0.00  0.00    +0.000 C 
ENDROOT
BRANCH   1   6
ATOM      3  C   UNL     1      38.273  52.110  59.668  0.00  0.00    +0.000 A 
ATOM      4  C   UNL     1      38.840  53.322  59.331  0.00  0.00    +0.000 A 
ATOM      5  C   UNL     1      38.073  54.348  58.863  0.00  0.00    +0.000 A 
ATOM      6  C   UNL     1      36.705  54.203  58.712  0.00  0.00    +0.000 A 
ATOM      7  C   UNL     1      36.170  52.980  59.056  0.00  0.00    +0.000 A 
ATOM      8  C   UNL     1      36.903  51.926  59.529  0.00  0.00    +0.000 A 
BRANCH   3  10
ATOM      9  C   UNL     1      40.433  51.026  59.814  0.00  0.00    +0.000 C 
ATOM     10  O   UNL     1      39.067  51.053  60.150  0.00  0.00    +0.000 OA
ENDBRANCH   3  10
BRANCH   8  11
ATOM     11  O   UNL     1      36.389  50.698  59.878  0.00  0.00    +0.000 OA
BRANCH  11  12
ATOM     12  C   UNL     1      35.330  50.483  60.761  0.00  0.00    +0.000 C 
BRANCH  12  13
ATOM     13  C   UNL     1      35.637  51.122  62.049  0.00  0.00    +0.000 C 
ATOM     14  O   UNL     1      34.967  52.128  62.396  0.00  0.00    +0.000 OA
ATOM     15  O   UNL     1      36.630  50.652  62.884  0.00  0.00    +0.000 OA
ENDBRANCH  12  13
ENDBRANCH  11  12
ENDBRANCH   8  11
ENDBRANCH   1   6
BRANCH   2  16
ATOM     16  C   UNL     1      35.707  57.241  56.708  0.00  0.00    +0.000 A 
ATOM     17  C   UNL     1      34.824  58.064  57.331  0.00  0.00    +0.000 A 
ATOM     18  C   UNL     1      34.237  59.129  56.640  0.00  0.00    +0.000 A 
ATOM     19  C   UNL     1      34.555  59.356  55.305  0.00  0.00    +0.000 A 
ATOM     20  C   UNL     1      35.450  58.523  54.670  0.00  0.00    +0.000 A 
ATOM     21  C   UNL     1      36.002  57.497  55.369  0.00  0.00    +0.000 A 
BRANCH  18  22
ATOM     22  O   UNL     1      33.331  59.988  57.251  0.00  0.00    +0.000 OA
ATOM     23  C   UNL     1      33.762  60.724  58.376  0.00  0.00    +0.000 C 
ENDBRANCH  18  22
BRANCH  19  24
ATOM     24  O   UNL     1      33.978  60.414  54.602  0.00  0.00    +0.000 OA
ATOM     25  C   UNL     1      34.634  61.674  54.725  0.00  0.00    +0.000 C 
ENDBRANCH  19  24
BRANCH  20  26
ATOM     26  O   UNL     1      35.747  58.780  53.326  0.00  0.00    +0.000 OA
ATOM     27  C   UNL     1      36.992  59.342  52.950  0.00  0.00    +0.000 C 
ENDBRANCH  20  26
ENDBRANCH   2  16
TORSDOF 9
ENDMDL
MODEL 9
REMARK VINA RESULT:      -5.9      7.585     12.177
REMARK  Name = 
REMARK  9 active torsions:
REMARK  status: ('A' for Active; 'I' for Inactive)
REMARK    1  A    between atoms: O_2  and  C_3
REMARK    2  A    between atoms: C_6  and  C_7
REMARK    3  A    between atoms: C_8  and  C_9
REMARK    4  A    between atoms: C_11  and  O_12
REMARK    5  A    between atoms: C_14  and  O_15
REMARK    6  A    between atoms: C_17  and  O_18
REMARK    7  A    between atoms: C_22  and  O_23
REMARK    8  A    between atoms: O_23  and  C_24
REMARK    9  A    between atoms: C_24  and  C_25
REMARK                            x       y       z     vdW  Elec       q    Type
REMARK                         _______ _______ _______ _____ _____    ______ ____
ROOT
ATOM      1  C   UNL     1      33.621  48.088  62.501  0.00  0.00    +0.000 C 
ATOM      2  C   UNL     1      32.618  47.797  61.725  0.00  0.00    +0.000 C 
ENDROOT
BRANCH   1   6
ATOM      3  C   UNL     1      36.411  51.014  61.153  0.00  0.00    +0.000 A 
ATOM      4  C   UNL     1      36.623  50.328  62.331  0.00  0.00    +0.000 A 
ATOM      5  C   UNL     1      35.731  49.391  62.765  0.00  0.00    +0.000 A 
ATOM      6  C   UNL     1      34.591  49.102  62.037  0.00  0.00    +0.000 A 
ATOM      7  C   UNL     1      34.409  49.805  60.866  0.00  0.00    +0.000 A 
ATOM      8  C   UNL     1      35.276  50.752  60.395  0.00  0.00    +0.000 A 
BRANCH   3  10
ATOM      9  C   UNL     1      37.342  53.242  61.331  0.00  0.00    +0.000 C 
ATOM     10  O   UNL     1      37.331  51.981  60.707  0.00  0.00    +0.000 OA
ENDBRANCH   3  10
BRANCH   8  11
ATOM     11  O   UNL     1      35.114  51.465  59.229  0.00  0.00    +0.000 OA
BRANCH  11  12
ATOM     12  C   UNL     1      33.995  52.229  58.894  0.00  0.00    +0.000 C 
BRANCH  12  13
ATOM     13  C   UNL     1      34.174  53.597  59.403  0.00  0.00    +0.000 C 
ATOM     14  O   UNL     1      33.477  53.970  60.380  0.00  0.00    +0.000 OA
ATOM     15  O   UNL     1      35.078  54.477  58.843  0.00  0.00    +0.000 OA
ENDBRANCH  12  13
ENDBRANCH  11  12
ENDBRANCH   8  11
ENDBRANCH   1   6
BRANCH   2  16
ATOM     16  C   UNL     1      31.575  46.833  62.014  0.00  0.00    +0.000 A 
ATOM     17  C   UNL     1      30.275  47.127  62.272  0.00  0.00    +0.000 A 
ATOM     18  C   UNL     1      29.355  46.108  62.539  0.00  0.00    +0.000 A 
ATOM     19  C   UNL     1      29.766  44.778  62.541  0.00  0.00    +0.000 A 
ATOM     20  C   UNL     1      31.085  44.477  62.279  0.00  0.00    +0.000 A 
ATOM     21  C   UNL     1      31.954  45.490  62.024  0.00  0.00    +0.000 A 
BRANCH  18  22
ATOM     22  O   UNL     1      28.018  46.378  62.806  0.00  0.00    +0.000 OA
ATOM     23  C   UNL     1      27.603  46.430  64.154  0.00  0.00    +0.000 C 
ENDBRANCH  18  22
BRANCH  19  24
ATOM     24  O   UNL     1      28.862  43.750  62.805  0.00  0.00    +0.000 OA
ATOM     25  C   UNL     1      28.073  43.315  61.699  0.00  0.00    +0.000 C 
ENDBRANCH  19  24
BRANCH  20  26
ATOM     26  O   UNL     1      31.464  43.129  62.289  0.00  0.00    +0.000 OA
ATOM     27  C   UNL     1      31.673  42.421  61.079  0.00  0.00    +0.000 C 
ENDBRANCH  20  26
ENDBRANCH   2  16
TORSDOF 9
ENDMDL
MODEL 10
REMARK VINA RESULT:      -5.9      1.884      3.130
REMARK  Name = 
REMARK  9 active torsions:
REMARK  status: ('A' for Active; 'I' for Inactive)
REMARK    1  A    between atoms: O_2  and  C_3
REMARK    2  A    between atoms: C_6  and  C_7
REMARK    3  A    between atoms: C_8  and  C_9
REMARK    4  A    between atoms: C_11  and  O_12
REMARK    5  A    between atoms: C_14  and  O_15
REMARK    6  A    between atoms: C_17  and  O_18
REMARK    7  A    between atoms: C_22  and  O_23
REMARK    8  A    between atoms: O_23  and  C_24
REMARK    9  A    between atoms: C_24  and  C_25
REMARK                            x       y       z     vdW  Elec       q    Type
REMARK                         _______ _______ _______ _____ _____    ______ ____
ROOT
ATOM      1  C   UNL     1      36.312  55.722  58.452  0.00  0.00    +0.000 C 
ATOM      2  C   UNL     1      36.183  56.109  57.216  0.00  0.00    +0.000 C 
ENDROOT
BRANCH   1   6
ATOM      3  C   UNL     1      38.043  51.900  59.196  0.00  0.00    +0.000 A 
ATOM      4  C   UNL     1      38.840  53.015  59.033  0.00  0.00    +0.000 A 
ATOM      5  C   UNL     1      38.288  54.239  58.795  0.00  0.00    +0.000 A 
ATOM      6  C   UNL     1      36.916  54.399  58.709  0.00  0.00    +0.000 A 
ATOM      7  C   UNL     1      36.150  53.265  58.875  0.00  0.00    +0.000 A 
ATOM      8  C   UNL     1      36.661  52.019  59.116  0.00  0.00    +0.000 A 
BRANCH   3  10
ATOM      9  C   UNL     1      39.889  50.575  60.032  0.00  0.00    +0.000 C 
ATOM     10  O   UNL     1      38.614  50.637  59.441  0.00  0.00    +0.000 OA
ENDBRANCH   3  10
BRANCH   8  11
ATOM     11  O   UNL     1      35.915  50.876  59.285  0.00  0.00    +0.000 OA
BRANCH  11  12
ATOM     12  C   UNL     1      34.866  50.719  60.193  0.00  0.00    +0.000 C 
BRANCH  12  13
ATOM     13  C   UNL     1      35.354  51.006  61.550  0.00  0.00    +0.000 C 
ATOM     14  O   UNL     1      36.177  50.212  62.073  0.00  0.00    +0.000 OA
ATOM     15  O   UNL     1      34.939  52.113  62.262  0.00  0.00    +0.000 OA
ENDBRANCH  12  13
ENDBRANCH  11  12
ENDBRANCH   8  11
ENDBRANCH   1   6
BRANCH   2  16
ATOM     16  C   UNL     1      35.616  57.368  56.777  0.00  0.00    +0.000 A 
ATOM     17  C   UNL     1      35.840  57.961  55.575  0.00  0.00    +0.000 A 
ATOM     18  C   UNL     1      35.235  59.182  55.262  0.00  0.00    +0.000 A 
ATOM     19  C   UNL     1      34.395  59.802  56.182  0.00  0.00    +0.000 A 
ATOM     20  C   UNL     1      34.166  59.203  57.401  0.00  0.00    +0.000 A 
ATOM     21  C   UNL     1      34.769  58.017  57.675  0.00  0.00    +0.000 A 
BRANCH  18  22
ATOM     22  O   UNL     1      35.445  59.812  54.041  0.00  0.00    +0.000 OA
ATOM     23  C   UNL     1      35.305  59.049  52.863  0.00  0.00    +0.000 C 
ENDBRANCH  18  22
BRANCH  19  24
ATOM     24  O   UNL     1      33.784  61.020  55.884  0.00  0.00    +0.000 OA
ATOM     25  C   UNL     1      32.531  60.940  55.207  0.00  0.00    +0.000 C 
ENDBRANCH  19  24
BRANCH  20  26
ATOM     26  O   UNL     1      33.315  59.855  58.302  0.00  0.00    +0.000 OA
ATOM     27  C   UNL     1      33.580  59.840  59.695  0.00  0.00    +0.000 C 
ENDBRANCH  20  26
ENDBRANCH   2  16
TORSDOF 9
ENDMDL
