REMARK  Name = 
REMARK  9 active torsions:
REMARK  status: ('A' for Active; 'I' for Inactive)
REMARK    1  A    between atoms: O_2  and  C_3
REMARK    2  A    between atoms: C_6  and  C_7
REMARK    3  A    between atoms: C_8  and  C_9
REMARK    4  A    between atoms: C_11  and  O_12
REMARK    5  A    between atoms: C_14  and  O_15
REMARK    6  A    between atoms: C_17  and  O_18
REMARK    7  A    between atoms: C_22  and  O_23
REMARK    8  A    between atoms: O_23  and  C_24
REMARK    9  A    between atoms: C_24  and  C_25
REMARK                            x       y       z     vdW  Elec       q    Type
REMARK                         _______ _______ _______ _____ _____    ______ ____
ROOT
ATOM      1  C   UNL     1       0.302   0.223   0.084  0.00  0.00    +0.000 C 
ATOM      2  C   UNL     1      -0.741  -0.510   0.346  0.00  0.00    +0.000 C 
ENDROOT
BRANCH   1   6
ATOM      3  C   UNL     1       4.156  -1.331   1.028  0.00  0.00    +0.000 A 
ATOM      4  C   UNL     1       3.017  -2.066   1.285  0.00  0.00    +0.000 A 
ATOM      5  C   UNL     1       1.782  -1.571   0.984  0.00  0.00    +0.000 A 
ATOM      6  C   UNL     1       1.636  -0.319   0.413  0.00  0.00    +0.000 A 
ATOM      7  C   UNL     1       2.793   0.389   0.170  0.00  0.00    +0.000 A 
ATOM      8  C   UNL     1       4.050  -0.069   0.456  0.00  0.00    +0.000 A 
BRANCH   3  10
ATOM      9  C   UNL     1       5.520  -3.122   1.919  0.00  0.00    +0.000 C 
ATOM     10  O   UNL     1       5.429  -1.843   1.340  0.00  0.00    +0.000 OA
ENDBRANCH   3  10
BRANCH   8  11
ATOM     11  O   UNL     1       5.217   0.621   0.221  0.00  0.00    +0.000 OA
BRANCH  11  12
ATOM     12  C   UNL     1       5.307   1.894  -0.344  0.00  0.00    +0.000 C 
BRANCH  12  13
ATOM     13  C   UNL     1       4.717   1.869  -1.690  0.00  0.00    +0.000 C 
ATOM     14  O   UNL     1       4.706   2.932  -2.361  0.00  0.00    +0.000 OA
ATOM     15  O   UNL     1       4.179   0.721  -2.236  0.00  0.00    +0.000 OA
ENDBRANCH  12  13
ENDBRANCH  11  12
ENDBRANCH   8  11
ENDBRANCH   1   6
BRANCH   2  16
ATOM     16  C   UNL     1      -2.120  -0.143   0.093  0.00  0.00    +0.000 A 
ATOM     17  C   UNL     1      -2.540   1.025  -0.458  0.00  0.00    +0.000 A 
ATOM     18  C   UNL     1      -3.903   1.269  -0.654  0.00  0.00    +0.000 A 
ATOM     19  C   UNL     1      -4.844   0.312  -0.286  0.00  0.00    +0.000 A 
ATOM     20  C   UNL     1      -4.421  -0.874   0.273  0.00  0.00    +0.000 A 
ATOM     21  C   UNL     1      -3.090  -1.080   0.451  0.00  0.00    +0.000 A 
BRANCH  18  22
ATOM     22  O   UNL     1      -4.362   2.454  -1.216  0.00  0.00    +0.000 OA
ATOM     23  C   UNL     1      -3.412   3.428  -1.591  0.00  0.00    +0.000 C 
ENDBRANCH  18  22
BRANCH  19  24
ATOM     24  O   UNL     1      -6.207   0.540  -0.475  0.00  0.00    +0.000 OA
ATOM     25  C   UNL     1      -6.741   0.118  -1.728  0.00  0.00    +0.000 C 
ENDBRANCH  19  24
BRANCH  20  26
ATOM     26  O   UNL     1      -5.395  -1.814   0.632  0.00  0.00    +0.000 OA
ATOM     27  C   UNL     1      -5.031  -3.055   1.212  0.00  0.00    +0.000 C 
ENDBRANCH  20  26
ENDBRANCH   2  16
TORSDOF 9
