REMARK  Name = 
REMARK  5 active torsions:
REMARK  status: ('A' for Active; 'I' for Inactive)
REMARK    1  A    between atoms: O_2  and  C_3
REMARK    2  A    between atoms: C_6  and  C_7
REMARK    3  A    between atoms: C_8  and  C_9
REMARK    4  A    between atoms: C_13  and  O_14
REMARK    5  A    between atoms: C_16  and  O_17
REMARK                            x       y       z     vdW  Elec       q    Type
REMARK                         _______ _______ _______ _____ _____    ______ ____
ROOT
ATOM      1  C   UNL     1      -1.295   0.232   0.020  0.00  0.00    +0.000 A 
ATOM      2  C   UNL     1      -1.806   1.495  -0.200  0.00  0.00    +0.000 A 
ATOM      3  C   UNL     1      -3.168   1.680  -0.281  0.00  0.00    +0.000 A 
ATOM      4  C   UNL     1      -4.066   0.636  -0.149  0.00  0.00    +0.000 A 
ATOM      5  C   UNL     1      -3.558  -0.616   0.070  0.00  0.00    +0.000 A 
ATOM      6  C   UNL     1      -2.178  -0.819   0.154  0.00  0.00    +0.000 A 
ATOM      7  O   UNL     1      -5.349   1.155  -0.280  0.00  0.00    +0.000 OA
ATOM      8  C   UNL     1      -5.242   2.557  -0.327  0.00  0.00    +0.000 C 
ATOM      9  O   UNL     1      -3.876   2.860  -0.495  0.00  0.00    +0.000 OA
ENDROOT
BRANCH   1  11
ATOM     10  C   UNL     1       1.034   0.926  -0.002  0.00  0.00    +0.000 C 
ATOM     11  C   UNL     1       0.138  -0.040   0.117  0.00  0.00    +0.000 C 
BRANCH  10  15
ATOM     12  C   UNL     1       5.176  -0.088   0.315  0.00  0.00    +0.000 A 
ATOM     13  C   UNL     1       4.788   1.214   0.093  0.00  0.00    +0.000 A 
ATOM     14  C   UNL     1       3.442   1.527  -0.007  0.00  0.00    +0.000 A 
ATOM     15  C   UNL     1       2.460   0.569   0.108  0.00  0.00    +0.000 A 
ATOM     16  C   UNL     1       2.877  -0.728   0.330  0.00  0.00    +0.000 A 
ATOM     17  C   UNL     1       4.205  -1.053   0.432  0.00  0.00    +0.000 A 
ATOM     18  O   UNL     1       4.580  -2.374   0.656  0.00  0.00    +0.000 OA
BRANCH  12  20
ATOM     19  C   UNL     1       7.529   0.557   0.301  0.00  0.00    +0.000 C 
ATOM     20  O   UNL     1       6.535  -0.441   0.422  0.00  0.00    +0.000 OA
ENDBRANCH  12  20
ENDBRANCH  10  15
ENDBRANCH   1  11
BRANCH   5  21
ATOM     21  O   UNL     1      -4.398  -1.716   0.213  0.00  0.00    +0.000 OA
ATOM     22  C   UNL     1      -4.808  -2.500  -0.891  0.00  0.00    +0.000 C 
ENDBRANCH   5  21
BRANCH   6  23
ATOM     23  O   UNL     1      -1.666  -2.089   0.375  0.00  0.00    +0.000 OA
ATOM     24  C   UNL     1      -1.355  -2.943  -0.732  0.00  0.00    +0.000 C 
ENDBRANCH   6  23
TORSDOF 5
