MODEL 1
REMARK VINA RESULT:      -6.2      0.000      0.000
REMARK  Name = 
REMARK  5 active torsions:
REMARK  status: ('A' for Active; 'I' for Inactive)
REMARK    1  A    between atoms: O_2  and  C_3
REMARK    2  A    between atoms: C_5  and  C_6
REMARK    3  A    between atoms: C_7  and  C_8
REMARK    4  A    between atoms: C_13  and  O_14
REMARK    5  A    between atoms: C_18  and  O_19
REMARK                            x       y       z     vdW  Elec       q    Type
REMARK                         _______ _______ _______ _____ _____    ______ ____
ROOT
ATOM      1  C   UNL     1      35.488  56.011  58.952  0.00  0.00    +0.000 C 
ATOM      2  C   UNL     1      36.136  56.507  57.937  0.00  0.00    +0.000 C 
ENDROOT
BRANCH   2   3
ATOM      3  C   UNL     1      35.508  57.437  56.974  0.00  0.00    +0.000 A 
ATOM      4  C   UNL     1      34.461  58.231  57.388  0.00  0.00    +0.000 A 
ATOM      5  C   UNL     1      33.864  59.105  56.503  0.00  0.00    +0.000 A 
ATOM      6  C   UNL     1      34.328  59.179  55.187  0.00  0.00    +0.000 A 
ATOM      7  O   UNL     1      33.743  60.050  54.281  0.00  0.00    +0.000 OA
ATOM      8  C   UNL     1      35.374  58.389  54.769  0.00  0.00    +0.000 A 
ATOM      9  C   UNL     1      35.950  57.524  55.676  0.00  0.00    +0.000 A 
BRANCH   8  10
ATOM     10  O   UNL     1      35.790  58.505  53.451  0.00  0.00    +0.000 OA
ATOM     11  C   UNL     1      36.991  59.170  53.117  0.00  0.00    +0.000 C 
ENDBRANCH   8  10
ENDBRANCH   2   3
BRANCH   1  14
ATOM     12  C   UNL     1      35.766  53.257  61.455  0.00  0.00    +0.000 A 
ATOM     13  C   UNL     1      35.273  54.147  60.532  0.00  0.00    +0.000 A 
ATOM     14  C   UNL     1      36.064  55.093  59.924  0.00  0.00    +0.000 A 
ATOM     15  C   UNL     1      37.394  55.122  60.276  0.00  0.00    +0.000 A 
ATOM     16  C   UNL     1      37.930  54.248  61.198  0.00  0.00    +0.000 A 
ATOM     17  C   UNL     1      37.099  53.311  61.785  0.00  0.00    +0.000 A 
BRANCH  12  19
ATOM     18  C   UNL     1      35.379  51.623  63.214  0.00  0.00    +0.000 C 
ATOM     19  O   UNL     1      34.953  52.314  62.053  0.00  0.00    +0.000 OA
ENDBRANCH  12  19
BRANCH  16  20
ATOM     20  O   UNL     1      39.268  54.288  61.543  0.00  0.00    +0.000 OA
ATOM     21  C   UNL     1      40.265  54.073  60.572  0.00  0.00    +0.000 C 
ENDBRANCH  16  20
ENDBRANCH   1  14
TORSDOF 5
ENDMDL
MODEL 2
REMARK VINA RESULT:      -6.1      1.586      3.066
REMARK  Name = 
REMARK  5 active torsions:
REMARK  status: ('A' for Active; 'I' for Inactive)
REMARK    1  A    between atoms: O_2  and  C_3
REMARK    2  A    between atoms: C_5  and  C_6
REMARK    3  A    between atoms: C_7  and  C_8
REMARK    4  A    between atoms: C_13  and  O_14
REMARK    5  A    between atoms: C_18  and  O_19
REMARK                            x       y       z     vdW  Elec       q    Type
REMARK                         _______ _______ _______ _____ _____    ______ ____
ROOT
ATOM      1  C   UNL     1      36.101  55.119  57.903  0.00  0.00    +0.000 C 
ATOM      2  C   UNL     1      36.405  56.384  57.844  0.00  0.00    +0.000 C 
ENDROOT
BRANCH   2   3
ATOM      3  C   UNL     1      35.628  57.350  57.037  0.00  0.00    +0.000 A 
ATOM      4  C   UNL     1      34.598  58.047  57.630  0.00  0.00    +0.000 A 
ATOM      5  C   UNL     1      33.863  58.953  56.894  0.00  0.00    +0.000 A 
ATOM      6  C   UNL     1      34.169  59.157  55.546  0.00  0.00    +0.000 A 
ATOM      7  O   UNL     1      33.443  60.061  54.786  0.00  0.00    +0.000 OA
ATOM      8  C   UNL     1      35.197  58.462  54.949  0.00  0.00    +0.000 A 
ATOM      9  C   UNL     1      35.914  57.563  55.711  0.00  0.00    +0.000 A 
BRANCH   8  10
ATOM     10  O   UNL     1      35.454  58.706  53.608  0.00  0.00    +0.000 OA
ATOM     11  C   UNL     1      36.770  58.912  53.139  0.00  0.00    +0.000 C 
ENDBRANCH   8  10
ENDBRANCH   2   3
BRANCH   1  14
ATOM     12  C   UNL     1      38.886  53.471  59.762  0.00  0.00    +0.000 A 
ATOM     13  C   UNL     1      38.147  54.367  59.028  0.00  0.00    +0.000 A 
ATOM     14  C   UNL     1      36.837  54.134  58.681  0.00  0.00    +0.000 A 
ATOM     15  C   UNL     1      36.276  52.949  59.101  0.00  0.00    +0.000 A 
ATOM     16  C   UNL     1      36.981  52.021  59.838  0.00  0.00    +0.000 A 
ATOM     17  C   UNL     1      38.297  52.297  60.166  0.00  0.00    +0.000 A 
BRANCH  12  19
ATOM     18  C   UNL     1      41.261  53.242  59.294  0.00  0.00    +0.000 C 
ATOM     19  O   UNL     1      40.201  53.725  60.099  0.00  0.00    +0.000 OA
ENDBRANCH  12  19
BRANCH  16  20
ATOM     20  O   UNL     1      36.406  50.835  60.253  0.00  0.00    +0.000 OA
ATOM     21  C   UNL     1      35.031  50.600  60.061  0.00  0.00    +0.000 C 
ENDBRANCH  16  20
ENDBRANCH   1  14
TORSDOF 5
ENDMDL
MODEL 3
REMARK VINA RESULT:      -6.1      1.744      8.312
REMARK  Name = 
REMARK  5 active torsions:
REMARK  status: ('A' for Active; 'I' for Inactive)
REMARK    1  A    between atoms: O_2  and  C_3
REMARK    2  A    between atoms: C_5  and  C_6
REMARK    3  A    between atoms: C_7  and  C_8
REMARK    4  A    between atoms: C_13  and  O_14
REMARK    5  A    between atoms: C_18  and  O_19
REMARK                            x       y       z     vdW  Elec       q    Type
REMARK                         _______ _______ _______ _____ _____    ______ ____
ROOT
ATOM      1  C   UNL     1      35.080  57.573  57.698  0.00  0.00    +0.000 C 
ATOM      2  C   UNL     1      36.002  56.672  57.515  0.00  0.00    +0.000 C 
ENDROOT
BRANCH   2   3
ATOM      3  C   UNL     1      36.507  55.819  58.613  0.00  0.00    +0.000 A 
ATOM      4  C   UNL     1      36.847  56.400  59.815  0.00  0.00    +0.000 A 
ATOM      5  C   UNL     1      37.319  55.620  60.850  0.00  0.00    +0.000 A 
ATOM      6  C   UNL     1      37.450  54.241  60.671  0.00  0.00    +0.000 A 
ATOM      7  O   UNL     1      37.923  53.438  61.698  0.00  0.00    +0.000 OA
ATOM      8  C   UNL     1      37.112  53.655  59.472  0.00  0.00    +0.000 A 
ATOM      9  C   UNL     1      36.643  54.462  58.455  0.00  0.00    +0.000 A 
BRANCH   8  10
ATOM     10  O   UNL     1      37.264  52.282  59.353  0.00  0.00    +0.000 OA
ATOM     11  C   UNL     1      36.152  51.435  59.153  0.00  0.00    +0.000 C 
ENDBRANCH   8  10
ENDBRANCH   2   3
BRANCH   1  14
ATOM     12  C   UNL     1      34.679  59.230  54.379  0.00  0.00    +0.000 A 
ATOM     13  C   UNL     1      35.136  58.438  55.404  0.00  0.00    +0.000 A 
ATOM     14  C   UNL     1      34.554  58.434  56.649  0.00  0.00    +0.000 A 
ATOM     15  C   UNL     1      33.475  59.266  56.842  0.00  0.00    +0.000 A 
ATOM     16  C   UNL     1      32.983  60.078  55.842  0.00  0.00    +0.000 A 
ATOM     17  C   UNL     1      33.599  60.050  54.603  0.00  0.00    +0.000 A 
BRANCH  12  19
ATOM     18  C   UNL     1      36.671  58.994  53.005  0.00  0.00    +0.000 C 
ATOM     19  O   UNL     1      35.279  59.218  53.135  0.00  0.00    +0.000 OA
ENDBRANCH  12  19
BRANCH  16  20
ATOM     20  O   UNL     1      31.899  60.910  56.049  0.00  0.00    +0.000 OA
ATOM     21  C   UNL     1      30.613  60.373  56.250  0.00  0.00    +0.000 C 
ENDBRANCH  16  20
ENDBRANCH   1  14
TORSDOF 5
ENDMDL
MODEL 4
REMARK VINA RESULT:      -6.1      1.739      8.006
REMARK  Name = 
REMARK  5 active torsions:
REMARK  status: ('A' for Active; 'I' for Inactive)
REMARK    1  A    between atoms: O_2  and  C_3
REMARK    2  A    between atoms: C_5  and  C_6
REMARK    3  A    between atoms: C_7  and  C_8
REMARK    4  A    between atoms: C_13  and  O_14
REMARK    5  A    between atoms: C_18  and  O_19
REMARK                            x       y       z     vdW  Elec       q    Type
REMARK                         _______ _______ _______ _____ _____    ______ ____
ROOT
ATOM      1  C   UNL     1      35.165  57.550  57.716  0.00  0.00    +0.000 C 
ATOM      2  C   UNL     1      36.016  56.585  57.521  0.00  0.00    +0.000 C 
ENDROOT
BRANCH   2   3
ATOM      3  C   UNL     1      36.529  55.744  58.625  0.00  0.00    +0.000 A 
ATOM      4  C   UNL     1      36.894  56.341  59.812  0.00  0.00    +0.000 A 
ATOM      5  C   UNL     1      37.374  55.573  60.853  0.00  0.00    +0.000 A 
ATOM      6  C   UNL     1      37.487  54.189  60.695  0.00  0.00    +0.000 A 
ATOM      7  O   UNL     1      37.967  53.398  61.727  0.00  0.00    +0.000 OA
ATOM      8  C   UNL     1      37.123  53.588  59.511  0.00  0.00    +0.000 A 
ATOM      9  C   UNL     1      36.647  54.383  58.488  0.00  0.00    +0.000 A 
BRANCH   8  10
ATOM     10  O   UNL     1      37.259  52.211  59.412  0.00  0.00    +0.000 OA
ATOM     11  C   UNL     1      36.148  51.384  59.136  0.00  0.00    +0.000 C 
ENDBRANCH   8  10
ENDBRANCH   2   3
BRANCH   1  14
ATOM     12  C   UNL     1      32.983  59.998  55.935  0.00  0.00    +0.000 A 
ATOM     13  C   UNL     1      33.523  59.177  56.895  0.00  0.00    +0.000 A 
ATOM     14  C   UNL     1      34.635  58.402  56.662  0.00  0.00    +0.000 A 
ATOM     15  C   UNL     1      35.202  58.474  55.410  0.00  0.00    +0.000 A 
ATOM     16  C   UNL     1      34.691  59.284  54.417  0.00  0.00    +0.000 A 
ATOM     17  C   UNL     1      33.572  60.049  54.695  0.00  0.00    +0.000 A 
BRANCH  12  19
ATOM     18  C   UNL     1      30.566  60.270  55.929  0.00  0.00    +0.000 C 
ATOM     19  O   UNL     1      31.865  60.769  56.191  0.00  0.00    +0.000 OA
ENDBRANCH  12  19
BRANCH  16  20
ATOM     20  O   UNL     1      35.270  59.348  53.163  0.00  0.00    +0.000 OA
ATOM     21  C   UNL     1      36.608  58.951  52.971  0.00  0.00    +0.000 C 
ENDBRANCH  16  20
ENDBRANCH   1  14
TORSDOF 5
ENDMDL
MODEL 5
REMARK VINA RESULT:      -6.0      1.788      2.561
REMARK  Name = 
REMARK  5 active torsions:
REMARK  status: ('A' for Active; 'I' for Inactive)
REMARK    1  A    between atoms: O_2  and  C_3
REMARK    2  A    between atoms: C_5  and  C_6
REMARK    3  A    between atoms: C_7  and  C_8
REMARK    4  A    between atoms: C_13  and  O_14
REMARK    5  A    between atoms: C_18  and  O_19
REMARK                            x       y       z     vdW  Elec       q    Type
REMARK                         _______ _______ _______ _____ _____    ______ ____
ROOT
ATOM      1  C   UNL     1      36.288  56.289  57.502  0.00  0.00    +0.000 C 
ATOM      2  C   UNL     1      36.381  56.370  56.206  0.00  0.00    +0.000 C 
ENDROOT
BRANCH   2   3
ATOM      3  C   UNL     1      36.170  57.638  55.474  0.00  0.00    +0.000 A 
ATOM      4  C   UNL     1      37.040  57.984  54.463  0.00  0.00    +0.000 A 
ATOM      5  C   UNL     1      36.859  59.163  53.769  0.00  0.00    +0.000 A 
ATOM      6  C   UNL     1      35.790  60.000  54.098  0.00  0.00    +0.000 A 
ATOM      7  O   UNL     1      35.588  61.189  53.414  0.00  0.00    +0.000 OA
ATOM      8  C   UNL     1      34.918  59.658  55.107  0.00  0.00    +0.000 A 
ATOM      9  C   UNL     1      35.126  58.474  55.783  0.00  0.00    +0.000 A 
BRANCH   8  10
ATOM     10  O   UNL     1      33.876  60.529  55.389  0.00  0.00    +0.000 OA
ATOM     11  C   UNL     1      32.552  60.241  54.993  0.00  0.00    +0.000 C 
ENDBRANCH   8  10
ENDBRANCH   2   3
BRANCH   1  14
ATOM     12  C   UNL     1      35.638  52.933  59.000  0.00  0.00    +0.000 A 
ATOM     13  C   UNL     1      35.502  54.106  58.298  0.00  0.00    +0.000 A 
ATOM     14  C   UNL     1      36.487  55.064  58.264  0.00  0.00    +0.000 A 
ATOM     15  C   UNL     1      37.640  54.808  58.971  0.00  0.00    +0.000 A 
ATOM     16  C   UNL     1      37.818  53.644  59.690  0.00  0.00    +0.000 A 
ATOM     17  C   UNL     1      36.801  52.706  59.696  0.00  0.00    +0.000 A 
BRANCH  12  19
ATOM     18  C   UNL     1      34.800  50.771  59.734  0.00  0.00    +0.000 C 
ATOM     19  O   UNL     1      34.635  51.983  59.020  0.00  0.00    +0.000 OA
ENDBRANCH  12  19
BRANCH  16  20
ATOM     20  O   UNL     1      38.981  53.399  60.396  0.00  0.00    +0.000 OA
ATOM     21  C   UNL     1      40.185  54.034  60.036  0.00  0.00    +0.000 C 
ENDBRANCH  16  20
ENDBRANCH   1  14
TORSDOF 5
ENDMDL
MODEL 6
REMARK VINA RESULT:      -6.0      1.485      8.206
REMARK  Name = 
REMARK  5 active torsions:
REMARK  status: ('A' for Active; 'I' for Inactive)
REMARK    1  A    between atoms: O_2  and  C_3
REMARK    2  A    between atoms: C_5  and  C_6
REMARK    3  A    between atoms: C_7  and  C_8
REMARK    4  A    between atoms: C_13  and  O_14
REMARK    5  A    between atoms: C_18  and  O_19
REMARK                            x       y       z     vdW  Elec       q    Type
REMARK                         _______ _______ _______ _____ _____    ______ ____
ROOT
ATOM      1  C   UNL     1      35.969  56.920  57.935  0.00  0.00    +0.000 C 
ATOM      2  C   UNL     1      36.146  55.633  57.846  0.00  0.00    +0.000 C 
ENDROOT
BRANCH   2   3
ATOM      3  C   UNL     1      36.783  54.843  58.922  0.00  0.00    +0.000 A 
ATOM      4  C   UNL     1      36.189  54.796  60.164  0.00  0.00    +0.000 A 
ATOM      5  C   UNL     1      36.769  54.064  61.180  0.00  0.00    +0.000 A 
ATOM      6  C   UNL     1      37.960  53.373  60.940  0.00  0.00    +0.000 A 
ATOM      7  O   UNL     1      38.561  52.632  61.945  0.00  0.00    +0.000 OA
ATOM      8  C   UNL     1      38.557  53.418  59.700  0.00  0.00    +0.000 A 
ATOM      9  C   UNL     1      37.954  54.159  58.705  0.00  0.00    +0.000 A 
BRANCH   8  10
ATOM     10  O   UNL     1      39.739  52.713  59.522  0.00  0.00    +0.000 OA
ATOM     11  C   UNL     1      40.982  53.377  59.433  0.00  0.00    +0.000 C 
ENDBRANCH   8  10
ENDBRANCH   2   3
BRANCH   1  14
ATOM     12  C   UNL     1      35.315  58.496  54.616  0.00  0.00    +0.000 A 
ATOM     13  C   UNL     1      35.862  57.744  55.627  0.00  0.00    +0.000 A 
ATOM     14  C   UNL     1      35.348  57.736  56.902  0.00  0.00    +0.000 A 
ATOM     15  C   UNL     1      34.243  58.522  57.140  0.00  0.00    +0.000 A 
ATOM     16  C   UNL     1      33.662  59.292  56.155  0.00  0.00    +0.000 A 
ATOM     17  C   UNL     1      34.211  59.270  54.885  0.00  0.00    +0.000 A 
BRANCH  12  19
ATOM     18  C   UNL     1      37.049  59.182  53.056  0.00  0.00    +0.000 C 
ATOM     19  O   UNL     1      35.848  58.489  53.342  0.00  0.00    +0.000 OA
ENDBRANCH  12  19
BRANCH  16  20
ATOM     20  O   UNL     1      32.552  60.077  56.408  0.00  0.00    +0.000 OA
ATOM     21  C   UNL     1      31.774  60.578  55.347  0.00  0.00    +0.000 C 
ENDBRANCH  16  20
ENDBRANCH   1  14
TORSDOF 5
ENDMDL
MODEL 7
REMARK VINA RESULT:      -6.0      0.995      3.283
REMARK  Name = 
REMARK  5 active torsions:
REMARK  status: ('A' for Active; 'I' for Inactive)
REMARK    1  A    between atoms: O_2  and  C_3
REMARK    2  A    between atoms: C_5  and  C_6
REMARK    3  A    between atoms: C_7  and  C_8
REMARK    4  A    between atoms: C_13  and  O_14
REMARK    5  A    between atoms: C_18  and  O_19
REMARK                            x       y       z     vdW  Elec       q    Type
REMARK                         _______ _______ _______ _____ _____    ______ ____
ROOT
ATOM      1  C   UNL     1      36.478  55.760  57.721  0.00  0.00    +0.000 C 
ATOM      2  C   UNL     1      35.820  56.883  57.699  0.00  0.00    +0.000 C 
ENDROOT
BRANCH   2   3
ATOM      3  C   UNL     1      35.594  57.646  56.452  0.00  0.00    +0.000 A 
ATOM      4  C   UNL     1      36.403  57.410  55.362  0.00  0.00    +0.000 A 
ATOM      5  C   UNL     1      36.206  58.112  54.191  0.00  0.00    +0.000 A 
ATOM      6  C   UNL     1      35.184  59.062  54.118  0.00  0.00    +0.000 A 
ATOM      7  O   UNL     1      34.968  59.779  52.952  0.00  0.00    +0.000 OA
ATOM      8  C   UNL     1      34.373  59.301  55.205  0.00  0.00    +0.000 A 
ATOM      9  C   UNL     1      34.594  58.584  56.363  0.00  0.00    +0.000 A 
BRANCH   8  10
ATOM     10  O   UNL     1      33.375  60.256  55.074  0.00  0.00    +0.000 OA
ATOM     11  C   UNL     1      32.346  60.377  56.033  0.00  0.00    +0.000 C 
ENDBRANCH   8  10
ENDBRANCH   2   3
BRANCH   1  14
ATOM     12  C   UNL     1      38.297  54.079  60.513  0.00  0.00    +0.000 A 
ATOM     13  C   UNL     1      38.009  54.808  59.384  0.00  0.00    +0.000 A 
ATOM     14  C   UNL     1      36.725  54.977  58.923  0.00  0.00    +0.000 A 
ATOM     15  C   UNL     1      35.714  54.380  59.641  0.00  0.00    +0.000 A 
ATOM     16  C   UNL     1      35.958  53.640  60.779  0.00  0.00    +0.000 A 
ATOM     17  C   UNL     1      37.265  53.496  61.209  0.00  0.00    +0.000 A 
BRANCH  12  19
ATOM     18  C   UNL     1      40.640  53.623  60.052  0.00  0.00    +0.000 C 
ATOM     19  O   UNL     1      39.594  53.923  60.959  0.00  0.00    +0.000 OA
ENDBRANCH  12  19
BRANCH  16  20
ATOM     20  O   UNL     1      34.933  53.046  61.491  0.00  0.00    +0.000 OA
ATOM     21  C   UNL     1      35.067  51.731  61.977  0.00  0.00    +0.000 C 
ENDBRANCH  16  20
ENDBRANCH   1  14
TORSDOF 5
ENDMDL
MODEL 8
REMARK VINA RESULT:      -6.0      2.292      8.071
REMARK  Name = 
REMARK  5 active torsions:
REMARK  status: ('A' for Active; 'I' for Inactive)
REMARK    1  A    between atoms: O_2  and  C_3
REMARK    2  A    between atoms: C_5  and  C_6
REMARK    3  A    between atoms: C_7  and  C_8
REMARK    4  A    between atoms: C_13  and  O_14
REMARK    5  A    between atoms: C_18  and  O_19
REMARK                            x       y       z     vdW  Elec       q    Type
REMARK                         _______ _______ _______ _____ _____    ______ ____
ROOT
ATOM      1  C   UNL     1      36.084  55.442  57.658  0.00  0.00    +0.000 C 
ATOM      2  C   UNL     1      35.530  55.203  58.812  0.00  0.00    +0.000 C 
ENDROOT
BRANCH   2   3
ATOM      3  C   UNL     1      35.332  53.831  59.328  0.00  0.00    +0.000 A 
ATOM      4  C   UNL     1      35.231  52.785  58.438  0.00  0.00    +0.000 A 
ATOM      5  C   UNL     1      35.047  51.499  58.902  0.00  0.00    +0.000 A 
ATOM      6  C   UNL     1      34.962  51.266  60.277  0.00  0.00    +0.000 A 
ATOM      7  O   UNL     1      34.776  49.982  60.766  0.00  0.00    +0.000 OA
ATOM      8  C   UNL     1      35.062  52.309  61.171  0.00  0.00    +0.000 A 
ATOM      9  C   UNL     1      35.246  53.584  60.677  0.00  0.00    +0.000 A 
BRANCH   8  10
ATOM     10  O   UNL     1      34.969  52.017  62.523  0.00  0.00    +0.000 OA
ATOM     11  C   UNL     1      36.125  51.847  63.317  0.00  0.00    +0.000 C 
ENDBRANCH   8  10
ENDBRANCH   2   3
BRANCH   1  14
ATOM     12  C   UNL     1      36.587  58.188  55.182  0.00  0.00    +0.000 A 
ATOM     13  C   UNL     1      36.386  56.954  55.750  0.00  0.00    +0.000 A 
ATOM     14  C   UNL     1      36.299  56.773  57.110  0.00  0.00    +0.000 A 
ATOM     15  C   UNL     1      36.422  57.891  57.903  0.00  0.00    +0.000 A 
ATOM     16  C   UNL     1      36.626  59.149  57.375  0.00  0.00    +0.000 A 
ATOM     17  C   UNL     1      36.706  59.286  56.000  0.00  0.00    +0.000 A 
BRANCH  12  19
ATOM     18  C   UNL     1      35.561  58.818  53.069  0.00  0.00    +0.000 C 
ATOM     19  O   UNL     1      36.671  58.346  53.812  0.00  0.00    +0.000 OA
ENDBRANCH  12  19
BRANCH  16  20
ATOM     20  O   UNL     1      36.749  60.264  58.182  0.00  0.00    +0.000 OA
ATOM     21  C   UNL     1      35.733  60.601  59.097  0.00  0.00    +0.000 C 
ENDBRANCH  16  20
ENDBRANCH   1  14
TORSDOF 5
ENDMDL
MODEL 9
REMARK VINA RESULT:      -5.9      2.319      8.085
REMARK  Name = 
REMARK  5 active torsions:
REMARK  status: ('A' for Active; 'I' for Inactive)
REMARK    1  A    between atoms: O_2  and  C_3
REMARK    2  A    between atoms: C_5  and  C_6
REMARK    3  A    between atoms: C_7  and  C_8
REMARK    4  A    between atoms: C_13  and  O_14
REMARK    5  A    between atoms: C_18  and  O_19
REMARK                            x       y       z     vdW  Elec       q    Type
REMARK                         _______ _______ _______ _____ _____    ______ ____
ROOT
ATOM      1  C   UNL     1      36.171  55.401  57.722  0.00  0.00    +0.000 C 
ATOM      2  C   UNL     1      35.345  55.126  58.690  0.00  0.00    +0.000 C 
ENDROOT
BRANCH   2   3
ATOM      3  C   UNL     1      35.203  53.764  59.250  0.00  0.00    +0.000 A 
ATOM      4  C   UNL     1      35.089  52.692  58.392  0.00  0.00    +0.000 A 
ATOM      5  C   UNL     1      34.957  51.415  58.897  0.00  0.00    +0.000 A 
ATOM      6  C   UNL     1      34.939  51.217  60.280  0.00  0.00    +0.000 A 
ATOM      7  O   UNL     1      34.807  49.943  60.810  0.00  0.00    +0.000 OA
ATOM      8  C   UNL     1      35.053  52.286  61.141  0.00  0.00    +0.000 A 
ATOM      9  C   UNL     1      35.184  53.551  60.607  0.00  0.00    +0.000 A 
BRANCH   8  10
ATOM     10  O   UNL     1      35.029  52.028  62.504  0.00  0.00    +0.000 OA
ATOM     11  C   UNL     1      36.220  51.959  63.259  0.00  0.00    +0.000 C 
ENDBRANCH   8  10
ENDBRANCH   2   3
BRANCH   1  14
ATOM     12  C   UNL     1      36.577  59.101  57.456  0.00  0.00    +0.000 A 
ATOM     13  C   UNL     1      36.415  57.831  57.953  0.00  0.00    +0.000 A 
ATOM     14  C   UNL     1      36.342  56.724  57.140  0.00  0.00    +0.000 A 
ATOM     15  C   UNL     1      36.439  56.932  55.783  0.00  0.00    +0.000 A 
ATOM     16  C   UNL     1      36.601  58.190  55.241  0.00  0.00    +0.000 A 
ATOM     17  C   UNL     1      36.670  59.276  56.096  0.00  0.00    +0.000 A 
BRANCH  12  19
ATOM     18  C   UNL     1      36.283  61.486  57.826  0.00  0.00    +0.000 C 
ATOM     19  O   UNL     1      36.647  60.199  58.291  0.00  0.00    +0.000 OA
ENDBRANCH  12  19
BRANCH  16  20
ATOM     20  O   UNL     1      36.697  58.385  53.876  0.00  0.00    +0.000 OA
ATOM     21  C   UNL     1      35.576  58.803  53.133  0.00  0.00    +0.000 C 
ENDBRANCH  16  20
ENDBRANCH   1  14
TORSDOF 5
ENDMDL
MODEL 10
REMARK VINA RESULT:      -5.8      2.224      8.227
REMARK  Name = 
REMARK  5 active torsions:
REMARK  status: ('A' for Active; 'I' for Inactive)
REMARK    1  A    between atoms: O_2  and  C_3
REMARK    2  A    between atoms: C_5  and  C_6
REMARK    3  A    between atoms: C_7  and  C_8
REMARK    4  A    between atoms: C_13  and  O_14
REMARK    5  A    between atoms: C_18  and  O_19
REMARK                            x       y       z     vdW  Elec       q    Type
REMARK                         _______ _______ _______ _____ _____    ______ ____
ROOT
ATOM      1  C   UNL     1      36.410  56.208  57.442  0.00  0.00    +0.000 C 
ATOM      2  C   UNL     1      35.970  55.262  58.222  0.00  0.00    +0.000 C 
ENDROOT
BRANCH   2   3
ATOM      3  C   UNL     1      36.797  54.095  58.598  0.00  0.00    +0.000 A 
ATOM      4  C   UNL     1      38.170  54.203  58.561  0.00  0.00    +0.000 A 
ATOM      5  C   UNL     1      38.957  53.124  58.910  0.00  0.00    +0.000 A 
ATOM      6  C   UNL     1      38.353  51.925  59.297  0.00  0.00    +0.000 A 
ATOM      7  O   UNL     1      39.124  50.829  59.651  0.00  0.00    +0.000 OA
ATOM      8  C   UNL     1      36.981  51.813  59.335  0.00  0.00    +0.000 A 
ATOM      9  C   UNL     1      36.221  52.908  58.981  0.00  0.00    +0.000 A 
BRANCH   8  10
ATOM     10  O   UNL     1      36.439  50.598  59.727  0.00  0.00    +0.000 OA
ATOM     11  C   UNL     1      35.111  50.506  60.200  0.00  0.00    +0.000 C 
ENDBRANCH   8  10
ENDBRANCH   2   3
BRANCH   1  14
ATOM     12  C   UNL     1      35.155  59.072  55.407  0.00  0.00    +0.000 A 
ATOM     13  C   UNL     1      35.860  57.972  55.829  0.00  0.00    +0.000 A 
ATOM     14  C   UNL     1      35.633  57.373  57.046  0.00  0.00    +0.000 A 
ATOM     15  C   UNL     1      34.656  57.921  57.845  0.00  0.00    +0.000 A 
ATOM     16  C   UNL     1      33.925  59.025  57.461  0.00  0.00    +0.000 A 
ATOM     17  C   UNL     1      34.185  59.597  56.227  0.00  0.00    +0.000 A 
BRANCH  12  19
ATOM     18  C   UNL     1      35.333  58.898  52.988  0.00  0.00    +0.000 C 
ATOM     19  O   UNL     1      35.400  59.659  54.180  0.00  0.00    +0.000 OA
ENDBRANCH  12  19
BRANCH  16  20
ATOM     20  O   UNL     1      32.946  59.566  58.273  0.00  0.00    +0.000 OA
ATOM     21  C   UNL     1      32.051  60.530  57.771  0.00  0.00    +0.000 C 
ENDBRANCH  16  20
ENDBRANCH   1  14
TORSDOF 5
ENDMDL
