REMARK  Name = 
REMARK  5 active torsions:
REMARK  status: ('A' for Active; 'I' for Inactive)
REMARK    1  A    between atoms: O_2  and  C_3
REMARK    2  A    between atoms: C_6  and  C_7
REMARK    3  A    between atoms: C_8  and  C_9
REMARK    4  A    between atoms: C_8  and  C_11
REMARK    5  A    between atoms: C_13  and  O_14
REMARK                            x       y       z     vdW  Elec       q    Type
REMARK                         _______ _______ _______ _____ _____    ______ ____
ROOT
ATOM      1  C   UNL     1       1.300  -2.071  -0.472  0.00  0.00    +0.000 C 
ATOM      2  C   UNL     1       0.015  -2.120  -0.535  0.00  0.00    +0.000 C 
ENDROOT
BRANCH   2   3
ATOM      3  C   UNL     1      -0.825  -0.985  -0.275  0.00  0.00    +0.000 A 
ATOM      4  C   UNL     1      -2.197  -1.183  -0.447  0.00  0.00    +0.000 A 
ATOM      5  C   UNL     1      -3.135  -0.223  -0.214  0.00  0.00    +0.000 A 
ATOM      6  C   UNL     1      -2.724   1.024   0.217  0.00  0.00    +0.000 A 
ATOM      7  C   UNL     1      -1.384   1.245   0.395  0.00  0.00    +0.000 A 
ATOM      8  C   UNL     1      -0.466   0.254   0.150  0.00  0.00    +0.000 A 
ATOM      9  O   UNL     1      -1.242   2.572   0.831  0.00  0.00    +0.000 OA
ATOM     10  C   UNL     1      -2.505   3.061   1.260  0.00  0.00    +0.000 C 
ATOM     11  O   UNL     1      -3.388   2.206   0.543  0.00  0.00    +0.000 OA
BRANCH   5  12
ATOM     12  O   UNL     1      -4.495  -0.414  -0.384  0.00  0.00    +0.000 OA
ATOM     13  C   UNL     1      -5.077  -1.628  -0.820  0.00  0.00    +0.000 C 
ENDBRANCH   5  12
ENDBRANCH   2   3
BRANCH   1  17
ATOM     14  C   UNL     1       3.765   1.320   0.353  0.00  0.00    +0.000 A 
ATOM     15  C   UNL     1       3.863   0.156   1.081  0.00  0.00    +0.000 A 
ATOM     16  C   UNL     1       3.045  -0.913   0.807  0.00  0.00    +0.000 A 
ATOM     17  C   UNL     1       2.074  -0.898  -0.208  0.00  0.00    +0.000 A 
ATOM     18  C   UNL     1       1.997   0.289  -0.927  0.00  0.00    +0.000 A 
ATOM     19  C   UNL     1       2.820   1.360  -0.649  0.00  0.00    +0.000 A 
BRANCH  14  21
ATOM     20  C   UNL     1       5.556   2.413   1.628  0.00  0.00    +0.000 C 
ATOM     21  O   UNL     1       4.580   2.440   0.598  0.00  0.00    +0.000 OA
ENDBRANCH  14  21
ENDBRANCH   1  17
BRANCH   2  22
ATOM     22  C   UNL     1      -0.566  -3.436  -0.828  0.00  0.00    +0.000 C 
ATOM     23  N   UNL     1      -1.015  -4.470  -1.080  0.00  0.00    +0.000 NA
ENDBRANCH   2  22
TORSDOF 5
