REMARK  Name = 
REMARK  6 active torsions:
REMARK  status: ('A' for Active; 'I' for Inactive)
REMARK    1  A    between atoms: O_2  and  C_3
REMARK    2  A    between atoms: C_5  and  C_6
REMARK    3  A    between atoms: C_7  and  C_8
REMARK    4  A    between atoms: C_11  and  O_12
REMARK    5  A    between atoms: C_15  and  O_16
REMARK    6  A    between atoms: C_19  and  O_20
REMARK                            x       y       z     vdW  Elec       q    Type
REMARK                         _______ _______ _______ _____ _____    ______ ____
ROOT
ATOM      1  C   UNL     1      -0.214   0.841  -0.123  0.00  0.00    +0.000 C 
ATOM      2  C   UNL     1       0.417  -0.327  -0.098  0.00  0.00    +0.000 C 
ENDROOT
BRANCH   1   5
ATOM      3  C   UNL     1      -3.774  -0.300  -0.151  0.00  0.00    +0.000 A 
ATOM      4  C   UNL     1      -2.392  -0.377  -0.133  0.00  0.00    +0.000 A 
ATOM      5  C   UNL     1      -1.674   0.820  -0.141  0.00  0.00    +0.000 A 
ATOM      6  C   UNL     1      -2.337   2.041  -0.167  0.00  0.00    +0.000 A 
ATOM      7  C   UNL     1      -3.714   2.106  -0.185  0.00  0.00    +0.000 A 
ATOM      8  C   UNL     1      -4.407   0.918  -0.177  0.00  0.00    +0.000 A 
BRANCH   3  10
ATOM      9  C   UNL     1      -3.950  -2.742  -0.119  0.00  0.00    +0.000 C 
ATOM     10  O   UNL     1      -4.554  -1.457  -0.145  0.00  0.00    +0.000 OA
ENDBRANCH   3  10
BRANCH   7  11
ATOM     11  O   UNL     1      -4.371   3.345  -0.211  0.00  0.00    +0.000 OA
ATOM     12  C   UNL     1      -5.780   3.407  -0.230  0.00  0.00    +0.000 C 
ENDBRANCH   7  11
ENDBRANCH   1   5
BRANCH   2  13
ATOM     13  C   UNL     1       1.869  -0.289  -0.080  0.00  0.00    +0.000 A 
ATOM     14  C   UNL     1       2.608   0.871  -0.088  0.00  0.00    +0.000 A 
ATOM     15  C   UNL     1       3.990   0.856  -0.070  0.00  0.00    +0.000 A 
ATOM     16  C   UNL     1       4.636  -0.347  -0.045  0.00  0.00    +0.000 A 
ATOM     17  C   UNL     1       3.935  -1.529  -0.036  0.00  0.00    +0.000 A 
ATOM     18  C   UNL     1       2.548  -1.486  -0.055  0.00  0.00    +0.000 A 
BRANCH  16  19
ATOM     19  O   UNL     1       6.031  -0.443  -0.026  0.00  0.00    +0.000 OA
ATOM     20  C   UNL     1       6.869   0.697  -0.031  0.00  0.00    +0.000 C 
ENDBRANCH  16  19
BRANCH  18  21
ATOM     21  O   UNL     1       1.857  -2.663  -0.046  0.00  0.00    +0.000 OA
ATOM     22  C   UNL     1       2.407  -3.942  -0.021  0.00  0.00    +0.000 C 
ENDBRANCH  18  21
ENDBRANCH   2  13
TORSDOF 6
