REMARK  Name = 
REMARK  5 active torsions:
REMARK  status: ('A' for Active; 'I' for Inactive)
REMARK    1  A    between atoms: C_2  and  C_3
REMARK    2  A    between atoms: C_5  and  O_6
REMARK    3  A    between atoms: O_6  and  C_7
REMARK    4  A    between atoms: C_12  and  C_13
REMARK    5  A    between atoms: C_14  and  C_15
REMARK                            x       y       z     vdW  Elec       q    Type
REMARK                         _______ _______ _______ _____ _____    ______ ____
ROOT
ATOM      1  C   UNL     1      -0.393   1.257   0.904  0.00  0.00    +0.000 A 
ATOM      2  C   UNL     1       0.399   0.948   2.037  0.00  0.00    +0.000 A 
ATOM      3  C   UNL     1       1.759   0.623   1.920  0.00  0.00    +0.000 A 
ATOM      4  O   UNL     1       2.506   0.325   3.044  0.00  0.00    +0.000 OA
ATOM      5  C   UNL     1       2.237   0.624   0.639  0.00  0.00    +0.000 A 
ATOM      6  C   UNL     1       1.572   0.903  -0.477  0.00  0.00    +0.000 A 
ATOM      7  C   UNL     1       0.164   1.246  -0.309  0.00  0.00    +0.000 A 
ENDROOT
BRANCH   6   8
ATOM      8  C   UNL     1       1.949   0.745  -1.841  0.00  0.00    +0.000 C 
ATOM      9  C   UNL     1       2.974   0.080  -2.149  0.00  0.00    +0.000 C 
BRANCH   9  10
ATOM     10  C   UNL     1       3.873  -0.582  -1.182  0.00  0.00    +0.000 A 
ATOM     11  C   UNL     1       3.998  -1.984  -1.175  0.00  0.00    +0.000 A 
ATOM     12  C   UNL     1       4.934  -2.543  -0.256  0.00  0.00    +0.000 A 
ATOM     13  C   UNL     1       5.690  -1.840   0.569  0.00  0.00    +0.000 A 
ATOM     14  O   UNL     1       6.615  -2.387   1.497  0.00  0.00    +0.000 OA
ATOM     15  C   UNL     1       5.569  -0.462   0.555  0.00  0.00    +0.000 A 
ATOM     16  C   UNL     1       4.651   0.147  -0.326  0.00  0.00    +0.000 A 
ENDBRANCH   9  10
ENDBRANCH   6   8
BRANCH   1  17
ATOM     17  O   UNL     1      -1.744   1.521   1.280  0.00  0.00    +0.000 OA
BRANCH  17  20
ATOM     18  C   UNL     1      -3.673  -0.928  -0.095  0.00  0.00    +0.000 C 
ATOM     19  O   UNL     1      -3.357   0.044   1.125  0.00  0.00    +0.000 OA
ATOM     20  C   UNL     1      -2.475   0.878  -0.011  0.00  0.00    +0.000 C 
ATOM     21  C   UNL     1      -3.847   1.957   0.002  0.00  0.00    +0.000 C 
ATOM     22  O   UNL     1      -3.247   2.919  -0.995  0.00  0.00    +0.000 OA
ATOM     23  C   UNL     1      -4.609   1.022  -1.232  0.00  0.00    +0.000 C 
ATOM     24  O   UNL     1      -5.907   1.880  -1.109  0.00  0.00    +0.000 OA
ATOM     25  C   UNL     1      -5.277  -0.148  -0.190  0.00  0.00    +0.000 C 
ATOM     26  O   UNL     1      -5.617  -1.038  -1.367  0.00  0.00    +0.000 OA
BRANCH  18  28
ATOM     27  O   UNL     1      -4.551  -3.106   0.003  0.00  0.00    +0.000 OA
ATOM     28  C   UNL     1      -4.193  -2.100   0.914  0.00  0.00    +0.000 C 
ENDBRANCH  18  28
ENDBRANCH  17  20
ENDBRANCH   1  17
TORSDOF 5
