REMARK  Name = 
REMARK  5 active torsions:
REMARK  status: ('A' for Active; 'I' for Inactive)
REMARK    1  A    between atoms: O_2  and  C_3
REMARK    2  A    between atoms: C_5  and  C_6
REMARK    3  A    between atoms: C_7  and  C_8
REMARK    4  A    between atoms: C_16  and  O_17
REMARK    5  A    between atoms: C_19  and  O_20
REMARK                            x       y       z     vdW  Elec       q    Type
REMARK                         _______ _______ _______ _____ _____    ______ ____
ROOT
ATOM      1  C   UNL     1      -2.674  -1.028   0.061  0.00  0.00    +0.000 A 
ATOM      2  C   UNL     1      -1.336  -0.822  -0.072  0.00  0.00    +0.000 A 
ATOM      3  C   UNL     1      -0.734   0.412   0.094  0.00  0.00    +0.000 A 
ATOM      4  C   UNL     1      -1.569   1.464   0.410  0.00  0.00    +0.000 A 
ATOM      5  C   UNL     1      -2.945   1.275   0.551  0.00  0.00    +0.000 A 
ATOM      6  C   UNL     1      -3.490   0.029   0.376  0.00  0.00    +0.000 A 
ENDROOT
BRANCH   1   8
ATOM      7  C   UNL     1      -2.326  -3.381  -0.449  0.00  0.00    +0.000 C 
ATOM      8  O   UNL     1      -3.183  -2.304  -0.125  0.00  0.00    +0.000 OA
ENDBRANCH   1   8
BRANCH   3   9
ATOM      9  C   UNL     1       0.697   0.634  -0.048  0.00  0.00    +0.000 C 
ATOM     10  C   UNL     1       1.557  -0.300  -0.344  0.00  0.00    +0.000 C 
BRANCH  10  11
ATOM     11  C   UNL     1       3.006  -0.050  -0.483  0.00  0.00    +0.000 A 
ATOM     12  C   UNL     1       3.809  -1.132  -0.800  0.00  0.00    +0.000 A 
ATOM     13  C   UNL     1       5.173  -0.986  -0.949  0.00  0.00    +0.000 A 
ATOM     14  C   UNL     1       5.728   0.269  -0.773  0.00  0.00    +0.000 A 
ATOM     15  O   UNL     1       7.096   0.383  -0.928  0.00  0.00    +0.000 OA
ATOM     16  C   UNL     1       4.910   1.341  -0.455  0.00  0.00    +0.000 A 
ATOM     17  C   UNL     1       3.546   1.197  -0.307  0.00  0.00    +0.000 A 
ENDBRANCH  10  11
ENDBRANCH   3   9
BRANCH   5  18
ATOM     18  O   UNL     1      -3.795   2.324   0.868  0.00  0.00    +0.000 OA
ATOM     19  C   UNL     1      -3.298   3.631   1.062  0.00  0.00    +0.000 C 
ENDBRANCH   5  18
BRANCH   6  20
ATOM     20  O   UNL     1      -4.864  -0.223   0.504  0.00  0.00    +0.000 OA
ATOM     21  C   UNL     1      -5.309  -0.581   1.807  0.00  0.00    +0.000 C 
ENDBRANCH   6  20
TORSDOF 5
