MODEL 1
REMARK VINA RESULT:      -6.7      0.000      0.000
REMARK  Name = 
REMARK  2 active torsions:
REMARK  status: ('A' for Active; 'I' for Inactive)
REMARK    1  A    between atoms: C_4  and  C_5
REMARK    2  A    between atoms: C_6  and  C_7
REMARK                            x       y       z     vdW  Elec       q    Type
REMARK                         _______ _______ _______ _____ _____    ______ ____
ROOT
ATOM      1  C   UNL     1      31.164  46.176  62.270  0.00  0.00    +0.000 C 
ATOM      2  C   UNL     1      29.945  45.730  62.319  0.00  0.00    +0.000 C 
ENDROOT
BRANCH   1   6
ATOM      3  O   UNL     1      33.331  42.543  59.805  0.00  0.00    +0.000 OA
ATOM      4  C   UNL     1      33.428  43.570  60.736  0.00  0.00    +0.000 A 
ATOM      5  C   UNL     1      32.301  44.325  61.024  0.00  0.00    +0.000 A 
ATOM      6  C   UNL     1      32.329  45.357  61.938  0.00  0.00    +0.000 A 
ATOM      7  C   UNL     1      33.537  45.605  62.552  0.00  0.00    +0.000 A 
ATOM      8  C   UNL     1      34.681  44.857  62.275  0.00  0.00    +0.000 A 
ATOM      9  O   UNL     1      35.886  45.135  62.916  0.00  0.00    +0.000 OA
ATOM     10  C   UNL     1      34.613  43.831  61.355  0.00  0.00    +0.000 A 
ATOM     11  O   UNL     1      35.742  43.056  61.048  0.00  0.00    +0.000 OA
ENDBRANCH   1   6
BRANCH   2  12
ATOM     12  C   UNL     1      28.771  46.515  62.646  0.00  0.00    +0.000 A 
ATOM     13  C   UNL     1      28.101  46.201  63.815  0.00  0.00    +0.000 A 
ATOM     14  C   UNL     1      26.963  46.897  64.213  0.00  0.00    +0.000 A 
ATOM     15  O   UNL     1      26.316  46.547  65.404  0.00  0.00    +0.000 OA
ATOM     16  C   UNL     1      26.500  47.930  63.410  0.00  0.00    +0.000 A 
ATOM     17  O   UNL     1      25.364  48.599  63.842  0.00  0.00    +0.000 OA
ATOM     18  C   UNL     1      27.151  48.259  62.243  0.00  0.00    +0.000 A 
ATOM     19  O   UNL     1      26.655  49.299  61.467  0.00  0.00    +0.000 OA
ATOM     20  C   UNL     1      28.279  47.537  61.888  0.00  0.00    +0.000 A 
ENDBRANCH   2  12
TORSDOF 2
ENDMDL
MODEL 2
REMARK VINA RESULT:      -6.7     12.953     14.323
REMARK  Name = 
REMARK  2 active torsions:
REMARK  status: ('A' for Active; 'I' for Inactive)
REMARK    1  A    between atoms: C_4  and  C_5
REMARK    2  A    between atoms: C_6  and  C_7
REMARK                            x       y       z     vdW  Elec       q    Type
REMARK                         _______ _______ _______ _____ _____    ______ ____
ROOT
ATOM      1  C   UNL     1      36.393  56.799  58.410  0.00  0.00    +0.000 C 
ATOM      2  C   UNL     1      35.780  57.020  57.286  0.00  0.00    +0.000 C 
ENDROOT
BRANCH   1   6
ATOM      3  O   UNL     1      37.566  53.579  61.907  0.00  0.00    +0.000 OA
ATOM      4  C   UNL     1      36.603  54.115  61.059  0.00  0.00    +0.000 A 
ATOM      5  C   UNL     1      36.962  55.141  60.198  0.00  0.00    +0.000 A 
ATOM      6  C   UNL     1      36.056  55.717  59.333  0.00  0.00    +0.000 A 
ATOM      7  C   UNL     1      34.770  55.222  59.366  0.00  0.00    +0.000 A 
ATOM      8  C   UNL     1      34.391  54.191  60.226  0.00  0.00    +0.000 A 
ATOM      9  O   UNL     1      33.082  53.716  60.232  0.00  0.00    +0.000 OA
ATOM     10  C   UNL     1      35.327  53.640  61.077  0.00  0.00    +0.000 A 
ATOM     11  O   UNL     1      34.984  52.602  61.957  0.00  0.00    +0.000 OA
ENDBRANCH   1   6
BRANCH   2  12
ATOM     12  C   UNL     1      36.089  58.084  56.351  0.00  0.00    +0.000 A 
ATOM     13  C   UNL     1      35.593  57.964  55.065  0.00  0.00    +0.000 A 
ATOM     14  C   UNL     1      35.837  58.933  54.095  0.00  0.00    +0.000 A 
ATOM     15  O   UNL     1      35.316  58.773  52.806  0.00  0.00    +0.000 OA
ATOM     16  C   UNL     1      36.596  60.042  54.440  0.00  0.00    +0.000 A 
ATOM     17  O   UNL     1      36.816  60.985  53.447  0.00  0.00    +0.000 OA
ATOM     18  C   UNL     1      37.100  60.182  55.714  0.00  0.00    +0.000 A 
ATOM     19  O   UNL     1      37.856  61.307  56.019  0.00  0.00    +0.000 OA
ATOM     20  C   UNL     1      36.831  59.190  56.644  0.00  0.00    +0.000 A 
ENDBRANCH   2  12
TORSDOF 2
ENDMDL
MODEL 3
REMARK VINA RESULT:      -6.7      0.197      1.864
REMARK  Name = 
REMARK  2 active torsions:
REMARK  status: ('A' for Active; 'I' for Inactive)
REMARK    1  A    between atoms: C_4  and  C_5
REMARK    2  A    between atoms: C_6  and  C_7
REMARK                            x       y       z     vdW  Elec       q    Type
REMARK                         _______ _______ _______ _____ _____    ______ ____
ROOT
ATOM      1  C   UNL     1      31.191  46.043  62.242  0.00  0.00    +0.000 C 
ATOM      2  C   UNL     1      29.999  45.559  62.418  0.00  0.00    +0.000 C 
ENDROOT
BRANCH   1   6
ATOM      3  O   UNL     1      33.361  42.559  59.573  0.00  0.00    +0.000 OA
ATOM      4  C   UNL     1      33.457  43.532  60.561  0.00  0.00    +0.000 A 
ATOM      5  C   UNL     1      32.330  44.267  60.892  0.00  0.00    +0.000 A 
ATOM      6  C   UNL     1      32.357  45.246  61.862  0.00  0.00    +0.000 A 
ATOM      7  C   UNL     1      33.565  45.461  62.489  0.00  0.00    +0.000 A 
ATOM      8  C   UNL     1      34.710  44.731  62.169  0.00  0.00    +0.000 A 
ATOM      9  O   UNL     1      35.915  44.975  62.823  0.00  0.00    +0.000 OA
ATOM     10  C   UNL     1      34.642  43.759  61.192  0.00  0.00    +0.000 A 
ATOM     11  O   UNL     1      35.772  43.004  60.841  0.00  0.00    +0.000 OA
ENDBRANCH   1   6
BRANCH   2  12
ATOM     12  C   UNL     1      28.825  46.321  62.795  0.00  0.00    +0.000 A 
ATOM     13  C   UNL     1      28.430  47.341  61.947  0.00  0.00    +0.000 A 
ATOM     14  C   UNL     1      27.316  48.130  62.224  0.00  0.00    +0.000 A 
ATOM     15  O   UNL     1      26.951  49.151  61.339  0.00  0.00    +0.000 OA
ATOM     16  C   UNL     1      26.593  47.876  63.380  0.00  0.00    +0.000 A 
ATOM     17  O   UNL     1      25.489  48.683  63.619  0.00  0.00    +0.000 OA
ATOM     18  C   UNL     1      26.967  46.866  64.238  0.00  0.00    +0.000 A 
ATOM     19  O   UNL     1      26.216  46.645  65.385  0.00  0.00    +0.000 OA
ATOM     20  C   UNL     1      28.083  46.109  63.920  0.00  0.00    +0.000 A 
ENDBRANCH   2  12
TORSDOF 2
ENDMDL
MODEL 4
REMARK VINA RESULT:      -6.7      0.235      7.953
REMARK  Name = 
REMARK  2 active torsions:
REMARK  status: ('A' for Active; 'I' for Inactive)
REMARK    1  A    between atoms: C_4  and  C_5
REMARK    2  A    between atoms: C_6  and  C_7
REMARK                            x       y       z     vdW  Elec       q    Type
REMARK                         _______ _______ _______ _____ _____    ______ ____
ROOT
ATOM      1  C   UNL     1      30.075  45.591  62.598  0.00  0.00    +0.000 C 
ATOM      2  C   UNL     1      31.179  46.065  62.102  0.00  0.00    +0.000 C 
ENDROOT
BRANCH   1   6
ATOM      3  O   UNL     1      26.925  49.151  61.427  0.00  0.00    +0.000 OA
ATOM      4  C   UNL     1      27.304  48.140  62.303  0.00  0.00    +0.000 A 
ATOM      5  C   UNL     1      28.446  47.405  62.026  0.00  0.00    +0.000 A 
ATOM      6  C   UNL     1      28.878  46.389  62.853  0.00  0.00    +0.000 A 
ATOM      7  C   UNL     1      28.113  46.138  63.972  0.00  0.00    +0.000 A 
ATOM      8  C   UNL     1      26.960  46.866  64.266  0.00  0.00    +0.000 A 
ATOM      9  O   UNL     1      26.213  46.585  65.406  0.00  0.00    +0.000 OA
ATOM     10  C   UNL     1      26.562  47.876  63.414  0.00  0.00    +0.000 A 
ATOM     11  O   UNL     1      25.409  48.631  63.675  0.00  0.00    +0.000 OA
ENDBRANCH   1   6
BRANCH   2  12
ATOM     12  C   UNL     1      32.383  45.301  61.839  0.00  0.00    +0.000 A 
ATOM     13  C   UNL     1      33.531  45.667  62.519  0.00  0.00    +0.000 A 
ATOM     14  C   UNL     1      34.735  44.995  62.333  0.00  0.00    +0.000 A 
ATOM     15  O   UNL     1      35.873  45.399  63.042  0.00  0.00    +0.000 OA
ATOM     16  C   UNL     1      34.773  43.932  61.442  0.00  0.00    +0.000 A 
ATOM     17  O   UNL     1      35.991  43.288  61.285  0.00  0.00    +0.000 OA
ATOM     18  C   UNL     1      33.643  43.550  60.754  0.00  0.00    +0.000 A 
ATOM     19  O   UNL     1      33.723  42.481  59.871  0.00  0.00    +0.000 OA
ATOM     20  C   UNL     1      32.467  44.250  60.973  0.00  0.00    +0.000 A 
ENDBRANCH   2  12
TORSDOF 2
ENDMDL
MODEL 5
REMARK VINA RESULT:      -6.6     12.474     13.706
REMARK  Name = 
REMARK  2 active torsions:
REMARK  status: ('A' for Active; 'I' for Inactive)
REMARK    1  A    between atoms: C_4  and  C_5
REMARK    2  A    between atoms: C_6  and  C_7
REMARK                            x       y       z     vdW  Elec       q    Type
REMARK                         _______ _______ _______ _____ _____    ______ ____
ROOT
ATOM      1  C   UNL     1      36.038  56.202  57.939  0.00  0.00    +0.000 C 
ATOM      2  C   UNL     1      36.396  56.305  56.694  0.00  0.00    +0.000 C 
ENDROOT
BRANCH   1   6
ATOM      3  O   UNL     1      39.050  52.681  59.520  0.00  0.00    +0.000 OA
ATOM      4  C   UNL     1      37.811  53.308  59.596  0.00  0.00    +0.000 A 
ATOM      5  C   UNL     1      37.555  54.391  58.769  0.00  0.00    +0.000 A 
ATOM      6  C   UNL     1      36.348  55.057  58.793  0.00  0.00    +0.000 A 
ATOM      7  C   UNL     1      35.405  54.593  59.684  0.00  0.00    +0.000 A 
ATOM      8  C   UNL     1      35.645  53.505  60.524  0.00  0.00    +0.000 A 
ATOM      9  O   UNL     1      34.668  53.063  61.412  0.00  0.00    +0.000 OA
ATOM     10  C   UNL     1      36.866  52.864  60.469  0.00  0.00    +0.000 A 
ATOM     11  O   UNL     1      37.146  51.767  61.298  0.00  0.00    +0.000 OA
ENDBRANCH   1   6
BRANCH   2  12
ATOM     12  C   UNL     1      36.103  57.426  55.822  0.00  0.00    +0.000 A 
ATOM     13  C   UNL     1      35.012  58.214  56.143  0.00  0.00    +0.000 A 
ATOM     14  C   UNL     1      34.650  59.311  55.366  0.00  0.00    +0.000 A 
ATOM     15  O   UNL     1      33.540  60.082  55.726  0.00  0.00    +0.000 OA
ATOM     16  C   UNL     1      35.411  59.611  54.245  0.00  0.00    +0.000 A 
ATOM     17  O   UNL     1      35.019  60.712  53.497  0.00  0.00    +0.000 OA
ATOM     18  C   UNL     1      36.501  58.840  53.906  0.00  0.00    +0.000 A 
ATOM     19  O   UNL     1      37.236  59.175  52.776  0.00  0.00    +0.000 OA
ATOM     20  C   UNL     1      36.820  57.759  54.710  0.00  0.00    +0.000 A 
ENDBRANCH   2  12
TORSDOF 2
ENDMDL
MODEL 6
REMARK VINA RESULT:      -6.6     12.454     14.304
REMARK  Name = 
REMARK  2 active torsions:
REMARK  status: ('A' for Active; 'I' for Inactive)
REMARK    1  A    between atoms: C_4  and  C_5
REMARK    2  A    between atoms: C_6  and  C_7
REMARK                            x       y       z     vdW  Elec       q    Type
REMARK                         _______ _______ _______ _____ _____    ______ ____
ROOT
ATOM      1  C   UNL     1      36.423  56.245  56.650  0.00  0.00    +0.000 C 
ATOM      2  C   UNL     1      36.058  56.121  57.890  0.00  0.00    +0.000 C 
ENDROOT
BRANCH   1   6
ATOM      3  O   UNL     1      37.195  59.124  52.765  0.00  0.00    +0.000 OA
ATOM      4  C   UNL     1      36.436  58.826  53.892  0.00  0.00    +0.000 A 
ATOM      5  C   UNL     1      36.792  57.736  54.672  0.00  0.00    +0.000 A 
ATOM      6  C   UNL     1      36.083  57.385  55.801  0.00  0.00    +0.000 A 
ATOM      7  C   UNL     1      34.997  58.174  56.118  0.00  0.00    +0.000 A 
ATOM      8  C   UNL     1      34.625  59.274  55.344  0.00  0.00    +0.000 A 
ATOM      9  O   UNL     1      33.522  60.049  55.695  0.00  0.00    +0.000 OA
ATOM     10  C   UNL     1      35.361  59.593  54.222  0.00  0.00    +0.000 A 
ATOM     11  O   UNL     1      35.018  60.691  53.418  0.00  0.00    +0.000 OA
ENDBRANCH   1   6
BRANCH   2  12
ATOM     12  C   UNL     1      36.377  55.004  58.757  0.00  0.00    +0.000 A 
ATOM     13  C   UNL     1      35.395  54.576  59.632  0.00  0.00    +0.000 A 
ATOM     14  C   UNL     1      35.607  53.512  60.505  0.00  0.00    +0.000 A 
ATOM     15  O   UNL     1      34.586  53.111  61.373  0.00  0.00    +0.000 OA
ATOM     16  C   UNL     1      36.839  52.873  60.486  0.00  0.00    +0.000 A 
ATOM     17  O   UNL     1      37.011  51.817  61.369  0.00  0.00    +0.000 OA
ATOM     18  C   UNL     1      37.831  53.283  59.624  0.00  0.00    +0.000 A 
ATOM     19  O   UNL     1      39.050  52.616  59.637  0.00  0.00    +0.000 OA
ATOM     20  C   UNL     1      37.572  54.347  58.775  0.00  0.00    +0.000 A 
ENDBRANCH   2  12
TORSDOF 2
ENDMDL
MODEL 7
REMARK VINA RESULT:      -6.6     12.297     13.513
REMARK  Name = 
REMARK  2 active torsions:
REMARK  status: ('A' for Active; 'I' for Inactive)
REMARK    1  A    between atoms: C_4  and  C_5
REMARK    2  A    between atoms: C_6  and  C_7
REMARK                            x       y       z     vdW  Elec       q    Type
REMARK                         _______ _______ _______ _____ _____    ______ ____
ROOT
ATOM      1  C   UNL     1      35.833  56.028  58.097  0.00  0.00    +0.000 C 
ATOM      2  C   UNL     1      36.430  56.289  56.973  0.00  0.00    +0.000 C 
ENDROOT
BRANCH   1   6
ATOM      3  O   UNL     1      34.876  52.891  61.733  0.00  0.00    +0.000 OA
ATOM      4  C   UNL     1      35.774  53.380  60.790  0.00  0.00    +0.000 A 
ATOM      5  C   UNL     1      35.374  54.411  59.954  0.00  0.00    +0.000 A 
ATOM      6  C   UNL     1      36.215  54.942  58.998  0.00  0.00    +0.000 A 
ATOM      7  C   UNL     1      37.477  54.394  58.914  0.00  0.00    +0.000 A 
ATOM      8  C   UNL     1      37.896  53.356  59.747  0.00  0.00    +0.000 A 
ATOM      9  O   UNL     1      39.179  52.828  59.633  0.00  0.00    +0.000 OA
ATOM     10  C   UNL     1      37.025  52.853  60.691  0.00  0.00    +0.000 A 
ATOM     11  O   UNL     1      37.409  51.809  61.547  0.00  0.00    +0.000 OA
ENDBRANCH   1   6
BRANCH   2  12
ATOM     12  C   UNL     1      36.076  57.357  56.058  0.00  0.00    +0.000 A 
ATOM     13  C   UNL     1      35.001  58.158  56.400  0.00  0.00    +0.000 A 
ATOM     14  C   UNL     1      34.584  59.207  55.586  0.00  0.00    +0.000 A 
ATOM     15  O   UNL     1      33.492  59.993  55.970  0.00  0.00    +0.000 OA
ATOM     16  C   UNL     1      35.272  59.446  54.405  0.00  0.00    +0.000 A 
ATOM     17  O   UNL     1      34.827  60.501  53.622  0.00  0.00    +0.000 OA
ATOM     18  C   UNL     1      36.345  58.661  54.044  0.00  0.00    +0.000 A 
ATOM     19  O   UNL     1      37.006  58.933  52.854  0.00  0.00    +0.000 OA
ATOM     20  C   UNL     1      36.721  57.628  54.887  0.00  0.00    +0.000 A 
ENDBRANCH   2  12
TORSDOF 2
ENDMDL
MODEL 8
REMARK VINA RESULT:      -6.6     12.327     14.272
REMARK  Name = 
REMARK  2 active torsions:
REMARK  status: ('A' for Active; 'I' for Inactive)
REMARK    1  A    between atoms: C_4  and  C_5
REMARK    2  A    between atoms: C_6  and  C_7
REMARK                            x       y       z     vdW  Elec       q    Type
REMARK                         _______ _______ _______ _____ _____    ______ ____
ROOT
ATOM      1  C   UNL     1      36.445  56.236  56.871  0.00  0.00    +0.000 C 
ATOM      2  C   UNL     1      35.872  55.985  58.010  0.00  0.00    +0.000 C 
ENDROOT
BRANCH   1   6
ATOM      3  O   UNL     1      36.986  58.861  52.774  0.00  0.00    +0.000 OA
ATOM      4  C   UNL     1      36.314  58.655  53.974  0.00  0.00    +0.000 A 
ATOM      5  C   UNL     1      36.697  57.598  54.786  0.00  0.00    +0.000 A 
ATOM      6  C   UNL     1      36.073  57.338  55.987  0.00  0.00    +0.000 A 
ATOM      7  C   UNL     1      35.043  58.182  56.343  0.00  0.00    +0.000 A 
ATOM      8  C   UNL     1      34.643  59.250  55.538  0.00  0.00    +0.000 A 
ATOM      9  O   UNL     1      33.598  60.083  55.930  0.00  0.00    +0.000 OA
ATOM     10  C   UNL     1      35.294  59.478  54.343  0.00  0.00    +0.000 A 
ATOM     11  O   UNL     1      34.921  60.541  53.506  0.00  0.00    +0.000 OA
ENDBRANCH   1   6
BRANCH   2  12
ATOM     12  C   UNL     1      36.217  54.901  58.909  0.00  0.00    +0.000 A 
ATOM     13  C   UNL     1      37.465  54.323  58.759  0.00  0.00    +0.000 A 
ATOM     14  C   UNL     1      37.887  53.276  59.573  0.00  0.00    +0.000 A 
ATOM     15  O   UNL     1      39.158  52.720  59.388  0.00  0.00    +0.000 OA
ATOM     16  C   UNL     1      37.025  52.809  60.555  0.00  0.00    +0.000 A 
ATOM     17  O   UNL     1      37.483  51.765  61.347  0.00  0.00    +0.000 OA
ATOM     18  C   UNL     1      35.779  53.369  60.722  0.00  0.00    +0.000 A 
ATOM     19  O   UNL     1      34.947  52.873  61.718  0.00  0.00    +0.000 OA
ATOM     20  C   UNL     1      35.404  54.409  59.887  0.00  0.00    +0.000 A 
ENDBRANCH   2  12
TORSDOF 2
ENDMDL
MODEL 9
REMARK VINA RESULT:      -6.6      1.430      8.098
REMARK  Name = 
REMARK  2 active torsions:
REMARK  status: ('A' for Active; 'I' for Inactive)
REMARK    1  A    between atoms: C_4  and  C_5
REMARK    2  A    between atoms: C_6  and  C_7
REMARK                            x       y       z     vdW  Elec       q    Type
REMARK                         _______ _______ _______ _____ _____    ______ ____
ROOT
ATOM      1  C   UNL     1      30.229  45.816  62.467  0.00  0.00    +0.000 C 
ATOM      2  C   UNL     1      30.301  44.597  62.023  0.00  0.00    +0.000 C 
ENDROOT
BRANCH   1   6
ATOM      3  O   UNL     1      26.356  46.513  65.380  0.00  0.00    +0.000 OA
ATOM      4  C   UNL     1      27.058  46.862  64.232  0.00  0.00    +0.000 A 
ATOM      5  C   UNL     1      28.238  46.196  63.936  0.00  0.00    +0.000 A 
ATOM      6  C   UNL     1      28.981  46.494  62.815  0.00  0.00    +0.000 A 
ATOM      7  C   UNL     1      28.494  47.491  61.998  0.00  0.00    +0.000 A 
ATOM      8  C   UNL     1      27.310  48.173  62.279  0.00  0.00    +0.000 A 
ATOM      9  O   UNL     1      26.847  49.175  61.430  0.00  0.00    +0.000 OA
ATOM     10  C   UNL     1      26.593  47.845  63.412  0.00  0.00    +0.000 A 
ATOM     11  O   UNL     1      25.398  48.507  63.730  0.00  0.00    +0.000 OA
ENDBRANCH   1   6
BRANCH   2  12
ATOM     12  C   UNL     1      31.521  43.898  61.668  0.00  0.00    +0.000 A 
ATOM     13  C   UNL     1      31.929  43.961  60.348  0.00  0.00    +0.000 A 
ATOM     14  C   UNL     1      33.086  43.321  59.911  0.00  0.00    +0.000 A 
ATOM     15  O   UNL     1      33.463  43.411  58.566  0.00  0.00    +0.000 OA
ATOM     16  C   UNL     1      33.839  42.608  60.832  0.00  0.00    +0.000 A 
ATOM     17  O   UNL     1      34.986  41.986  60.357  0.00  0.00    +0.000 OA
ATOM     18  C   UNL     1      33.452  42.532  62.151  0.00  0.00    +0.000 A 
ATOM     19  O   UNL     1      34.234  41.808  63.041  0.00  0.00    +0.000 OA
ATOM     20  C   UNL     1      32.293  43.185  62.538  0.00  0.00    +0.000 A 
ENDBRANCH   2  12
TORSDOF 2
ENDMDL
MODEL 10
REMARK VINA RESULT:      -6.5     12.577     14.485
REMARK  Name = 
REMARK  2 active torsions:
REMARK  status: ('A' for Active; 'I' for Inactive)
REMARK    1  A    between atoms: C_4  and  C_5
REMARK    2  A    between atoms: C_6  and  C_7
REMARK                            x       y       z     vdW  Elec       q    Type
REMARK                         _______ _______ _______ _____ _____    ______ ____
ROOT
ATOM      1  C   UNL     1      36.248  56.437  56.790  0.00  0.00    +0.000 C 
ATOM      2  C   UNL     1      35.924  56.342  58.045  0.00  0.00    +0.000 C 
ENDROOT
BRANCH   1   6
ATOM      3  O   UNL     1      33.649  60.449  55.733  0.00  0.00    +0.000 OA
ATOM      4  C   UNL     1      34.676  59.575  55.395  0.00  0.00    +0.000 A 
ATOM      5  C   UNL     1      34.937  58.494  56.222  0.00  0.00    +0.000 A 
ATOM      6  C   UNL     1      35.940  57.590  55.945  0.00  0.00    +0.000 A 
ATOM      7  C   UNL     1      36.675  57.815  54.801  0.00  0.00    +0.000 A 
ATOM      8  C   UNL     1      36.427  58.897  53.957  0.00  0.00    +0.000 A 
ATOM      9  O   UNL     1      37.189  59.093  52.808  0.00  0.00    +0.000 OA
ATOM     10  C   UNL     1      35.413  59.780  54.269  0.00  0.00    +0.000 A 
ATOM     11  O   UNL     1      35.132  60.881  53.445  0.00  0.00    +0.000 OA
ENDBRANCH   1   6
BRANCH   2  12
ATOM     12  C   UNL     1      36.214  55.214  58.909  0.00  0.00    +0.000 A 
ATOM     13  C   UNL     1      37.469  54.639  58.805  0.00  0.00    +0.000 A 
ATOM     14  C   UNL     1      37.840  53.552  59.591  0.00  0.00    +0.000 A 
ATOM     15  O   UNL     1      39.119  53.001  59.454  0.00  0.00    +0.000 OA
ATOM     16  C   UNL     1      36.921  53.042  60.497  0.00  0.00    +0.000 A 
ATOM     17  O   UNL     1      37.330  51.959  61.262  0.00  0.00    +0.000 OA
ATOM     18  C   UNL     1      35.667  53.598  60.617  0.00  0.00    +0.000 A 
ATOM     19  O   UNL     1      34.777  53.057  61.535  0.00  0.00    +0.000 OA
ATOM     20  C   UNL     1      35.344  54.679  59.812  0.00  0.00    +0.000 A 
ENDBRANCH   2  12
TORSDOF 2
ENDMDL
