MODEL 1
REMARK VINA RESULT:      -6.5      0.000      0.000
REMARK  Name = 
REMARK  7 active torsions:
REMARK  status: ('A' for Active; 'I' for Inactive)
REMARK    1  A    between atoms: O_2  and  C_3
REMARK    2  A    between atoms: C_6  and  C_7
REMARK    3  A    between atoms: C_8  and  C_9
REMARK    4  A    between atoms: C_11  and  O_12
REMARK    5  A    between atoms: C_14  and  O_15
REMARK    6  A    between atoms: C_17  and  O_18
REMARK    7  A    between atoms: C_20  and  O_21
REMARK                            x       y       z     vdW  Elec       q    Type
REMARK                         _______ _______ _______ _____ _____    ______ ____
ROOT
ATOM      1  C   UNL     1      36.572  54.286  58.659  0.00  0.00    +0.000 A 
ATOM      2  C   UNL     1      37.825  54.415  59.201  0.00  0.00    +0.000 A 
ATOM      3  C   UNL     1      38.396  53.355  59.839  0.00  0.00    +0.000 A 
ATOM      4  C   UNL     1      37.718  52.151  59.940  0.00  0.00    +0.000 A 
ATOM      5  C   UNL     1      36.458  51.991  59.405  0.00  0.00    +0.000 A 
ATOM      6  C   UNL     1      35.916  53.083  58.771  0.00  0.00    +0.000 A 
ENDROOT
BRANCH   1   8
ATOM      7  C   UNL     1      36.583  56.043  57.053  0.00  0.00    +0.000 C 
ATOM      8  C   UNL     1      35.919  55.391  57.967  0.00  0.00    +0.000 C 
BRANCH   7  12
ATOM      9  C   UNL     1      34.867  59.353  54.938  0.00  0.00    +0.000 A 
ATOM     10  C   UNL     1      34.565  59.109  56.256  0.00  0.00    +0.000 A 
ATOM     11  C   UNL     1      35.129  58.038  56.916  0.00  0.00    +0.000 A 
ATOM     12  C   UNL     1      36.009  57.170  56.305  0.00  0.00    +0.000 A 
ATOM     13  C   UNL     1      36.311  57.417  54.981  0.00  0.00    +0.000 A 
ATOM     14  C   UNL     1      35.745  58.498  54.307  0.00  0.00    +0.000 A 
ATOM     15  O   UNL     1      36.107  58.675  52.964  0.00  0.00    +0.000 OA
BRANCH   9  17
ATOM     16  C   UNL     1      34.886  61.703  54.232  0.00  0.00    +0.000 C 
ATOM     17  O   UNL     1      34.335  60.410  54.219  0.00  0.00    +0.000 OA
ENDBRANCH   9  17
ENDBRANCH   7  12
ENDBRANCH   1   8
BRANCH   3  18
ATOM     18  O   UNL     1      39.674  53.410  60.419  0.00  0.00    +0.000 OA
ATOM     19  C   UNL     1      40.815  53.515  59.589  0.00  0.00    +0.000 C 
ENDBRANCH   3  18
BRANCH   4  20
ATOM     20  O   UNL     1      38.300  51.080  60.587  0.00  0.00    +0.000 OA
ATOM     21  C   UNL     1      39.039  50.107  59.872  0.00  0.00    +0.000 C 
ENDBRANCH   4  20
BRANCH   5  22
ATOM     22  O   UNL     1      35.792  50.784  59.514  0.00  0.00    +0.000 OA
ATOM     23  C   UNL     1      35.026  50.450  60.680  0.00  0.00    +0.000 C 
ENDBRANCH   5  22
BRANCH   6  24
ATOM     24  O   UNL     1      34.644  52.964  58.215  0.00  0.00    +0.000 OA
ATOM     25  C   UNL     1      33.503  53.270  59.008  0.00  0.00    +0.000 C 
ENDBRANCH   6  24
TORSDOF 7
ENDMDL
MODEL 2
REMARK VINA RESULT:      -6.0      1.695      8.662
REMARK  Name = 
REMARK  7 active torsions:
REMARK  status: ('A' for Active; 'I' for Inactive)
REMARK    1  A    between atoms: O_2  and  C_3
REMARK    2  A    between atoms: C_6  and  C_7
REMARK    3  A    between atoms: C_8  and  C_9
REMARK    4  A    between atoms: C_11  and  O_12
REMARK    5  A    between atoms: C_14  and  O_15
REMARK    6  A    between atoms: C_17  and  O_18
REMARK    7  A    between atoms: C_20  and  O_21
REMARK                            x       y       z     vdW  Elec       q    Type
REMARK                         _______ _______ _______ _____ _____    ______ ____
ROOT
ATOM      1  C   UNL     1      35.281  57.650  56.808  0.00  0.00    +0.000 A 
ATOM      2  C   UNL     1      34.416  58.175  57.735  0.00  0.00    +0.000 A 
ATOM      3  C   UNL     1      33.610  59.217  57.390  0.00  0.00    +0.000 A 
ATOM      4  C   UNL     1      33.659  59.746  56.111  0.00  0.00    +0.000 A 
ATOM      5  C   UNL     1      34.516  59.240  55.158  0.00  0.00    +0.000 A 
ATOM      6  C   UNL     1      35.313  58.190  55.544  0.00  0.00    +0.000 A 
ENDROOT
BRANCH   1   8
ATOM      7  C   UNL     1      35.782  55.665  58.022  0.00  0.00    +0.000 C 
ATOM      8  C   UNL     1      36.164  56.534  57.129  0.00  0.00    +0.000 C 
BRANCH   7  12
ATOM      9  C   UNL     1      38.112  52.247  59.146  0.00  0.00    +0.000 A 
ATOM     10  C   UNL     1      36.778  52.136  58.835  0.00  0.00    +0.000 A 
ATOM     11  C   UNL     1      36.048  53.250  58.477  0.00  0.00    +0.000 A 
ATOM     12  C   UNL     1      36.603  54.510  58.411  0.00  0.00    +0.000 A 
ATOM     13  C   UNL     1      37.943  54.619  58.724  0.00  0.00    +0.000 A 
ATOM     14  C   UNL     1      38.687  53.498  59.088  0.00  0.00    +0.000 A 
ATOM     15  O   UNL     1      40.041  53.700  59.390  0.00  0.00    +0.000 OA
BRANCH   9  17
ATOM     16  C   UNL     1      38.368  49.942  59.944  0.00  0.00    +0.000 C 
ATOM     17  O   UNL     1      38.899  51.169  59.514  0.00  0.00    +0.000 OA
ENDBRANCH   9  17
ENDBRANCH   7  12
ENDBRANCH   1   8
BRANCH   3  18
ATOM     18  O   UNL     1      32.700  59.808  58.283  0.00  0.00    +0.000 OA
ATOM     19  C   UNL     1      33.174  60.373  59.490  0.00  0.00    +0.000 C 
ENDBRANCH   3  18
BRANCH   4  20
ATOM     20  O   UNL     1      32.839  60.802  55.766  0.00  0.00    +0.000 OA
ATOM     21  C   UNL     1      31.606  60.587  55.105  0.00  0.00    +0.000 C 
ENDBRANCH   4  20
BRANCH   5  22
ATOM     22  O   UNL     1      34.554  59.778  53.885  0.00  0.00    +0.000 OA
ATOM     23  C   UNL     1      35.349  60.932  53.580  0.00  0.00    +0.000 C 
ENDBRANCH   5  22
BRANCH   6  24
ATOM     24  O   UNL     1      36.195  57.647  54.611  0.00  0.00    +0.000 OA
ATOM     25  C   UNL     1      37.504  58.190  54.488  0.00  0.00    +0.000 C 
ENDBRANCH   6  24
TORSDOF 7
ENDMDL
MODEL 3
REMARK VINA RESULT:      -6.0      1.582      1.670
REMARK  Name = 
REMARK  7 active torsions:
REMARK  status: ('A' for Active; 'I' for Inactive)
REMARK    1  A    between atoms: O_2  and  C_3
REMARK    2  A    between atoms: C_6  and  C_7
REMARK    3  A    between atoms: C_8  and  C_9
REMARK    4  A    between atoms: C_11  and  O_12
REMARK    5  A    between atoms: C_14  and  O_15
REMARK    6  A    between atoms: C_17  and  O_18
REMARK    7  A    between atoms: C_20  and  O_21
REMARK                            x       y       z     vdW  Elec       q    Type
REMARK                         _______ _______ _______ _____ _____    ______ ____
ROOT
ATOM      1  C   UNL     1      36.604  55.170  59.863  0.00  0.00    +0.000 A 
ATOM      2  C   UNL     1      37.950  54.967  60.030  0.00  0.00    +0.000 A 
ATOM      3  C   UNL     1      38.386  53.985  60.866  0.00  0.00    +0.000 A 
ATOM      4  C   UNL     1      37.477  53.191  61.548  0.00  0.00    +0.000 A 
ATOM      5  C   UNL     1      36.119  53.370  61.401  0.00  0.00    +0.000 A 
ATOM      6  C   UNL     1      35.719  54.371  60.549  0.00  0.00    +0.000 A 
ENDROOT
BRANCH   1   8
ATOM      7  C   UNL     1      36.375  56.154  57.709  0.00  0.00    +0.000 C 
ATOM      8  C   UNL     1      36.088  56.208  58.979  0.00  0.00    +0.000 C 
BRANCH   7  12
ATOM      9  C   UNL     1      34.938  59.099  54.946  0.00  0.00    +0.000 A 
ATOM     10  C   UNL     1      34.390  58.962  56.199  0.00  0.00    +0.000 A 
ATOM     11  C   UNL     1      34.868  58.007  57.070  0.00  0.00    +0.000 A 
ATOM     12  C   UNL     1      35.901  57.154  56.742  0.00  0.00    +0.000 A 
ATOM     13  C   UNL     1      36.450  57.294  55.484  0.00  0.00    +0.000 A 
ATOM     14  C   UNL     1      35.972  58.257  54.597  0.00  0.00    +0.000 A 
ATOM     15  O   UNL     1      36.587  58.330  53.339  0.00  0.00    +0.000 OA
BRANCH   9  17
ATOM     16  C   UNL     1      34.902  61.384  54.052  0.00  0.00    +0.000 C 
ATOM     17  O   UNL     1      34.503  60.037  54.025  0.00  0.00    +0.000 OA
ENDBRANCH   9  17
ENDBRANCH   7  12
ENDBRANCH   1   8
BRANCH   3  18
ATOM     18  O   UNL     1      39.748  53.718  61.088  0.00  0.00    +0.000 OA
ATOM     19  C   UNL     1      40.619  53.566  59.985  0.00  0.00    +0.000 C 
ENDBRANCH   3  18
BRANCH   4  20
ATOM     20  O   UNL     1      37.924  52.196  62.394  0.00  0.00    +0.000 OA
ATOM     21  C   UNL     1      38.114  52.441  63.775  0.00  0.00    +0.000 C 
ENDBRANCH   4  20
BRANCH   5  22
ATOM     22  O   UNL     1      35.223  52.571  62.087  0.00  0.00    +0.000 OA
ATOM     23  C   UNL     1      34.936  51.230  61.665  0.00  0.00    +0.000 C 
ENDBRANCH   5  22
BRANCH   6  24
ATOM     24  O   UNL     1      34.353  54.585  60.371  0.00  0.00    +0.000 OA
ATOM     25  C   UNL     1      33.650  53.835  59.388  0.00  0.00    +0.000 C 
ENDBRANCH   6  24
TORSDOF 7
ENDMDL
MODEL 4
REMARK VINA RESULT:      -6.0      0.982      1.570
REMARK  Name = 
REMARK  7 active torsions:
REMARK  status: ('A' for Active; 'I' for Inactive)
REMARK    1  A    between atoms: O_2  and  C_3
REMARK    2  A    between atoms: C_6  and  C_7
REMARK    3  A    between atoms: C_8  and  C_9
REMARK    4  A    between atoms: C_11  and  O_12
REMARK    5  A    between atoms: C_14  and  O_15
REMARK    6  A    between atoms: C_17  and  O_18
REMARK    7  A    between atoms: C_20  and  O_21
REMARK                            x       y       z     vdW  Elec       q    Type
REMARK                         _______ _______ _______ _____ _____    ______ ____
ROOT
ATOM      1  C   UNL     1      36.476  54.169  58.835  0.00  0.00    +0.000 A 
ATOM      2  C   UNL     1      37.824  53.936  58.739  0.00  0.00    +0.000 A 
ATOM      3  C   UNL     1      38.373  52.876  59.395  0.00  0.00    +0.000 A 
ATOM      4  C   UNL     1      37.577  52.034  60.156  0.00  0.00    +0.000 A 
ATOM      5  C   UNL     1      36.220  52.243  60.271  0.00  0.00    +0.000 A 
ATOM      6  C   UNL     1      35.704  53.322  59.595  0.00  0.00    +0.000 A 
ENDROOT
BRANCH   1   8
ATOM      7  C   UNL     1      36.541  55.986  57.300  0.00  0.00    +0.000 C 
ATOM      8  C   UNL     1      35.841  55.291  58.153  0.00  0.00    +0.000 C 
BRANCH   7  12
ATOM      9  C   UNL     1      34.964  59.301  55.086  0.00  0.00    +0.000 A 
ATOM     10  C   UNL     1      35.736  58.338  54.483  0.00  0.00    +0.000 A 
ATOM     11  C   UNL     1      36.233  57.281  55.216  0.00  0.00    +0.000 A 
ATOM     12  C   UNL     1      35.988  57.133  56.565  0.00  0.00    +0.000 A 
ATOM     13  C   UNL     1      35.213  58.102  57.168  0.00  0.00    +0.000 A 
ATOM     14  C   UNL     1      34.707  59.173  56.435  0.00  0.00    +0.000 A 
ATOM     15  O   UNL     1      33.928  60.112  57.127  0.00  0.00    +0.000 OA
BRANCH   9  17
ATOM     16  C   UNL     1      35.230  61.346  53.758  0.00  0.00    +0.000 C 
ATOM     17  O   UNL     1      34.436  60.387  54.408  0.00  0.00    +0.000 OA
ENDBRANCH   9  17
ENDBRANCH   7  12
ENDBRANCH   1   8
BRANCH   3  18
ATOM     18  O   UNL     1      39.744  52.573  59.345  0.00  0.00    +0.000 OA
ATOM     19  C   UNL     1      40.396  52.487  58.093  0.00  0.00    +0.000 C 
ENDBRANCH   3  18
BRANCH   4  20
ATOM     20  O   UNL     1      38.138  50.961  60.818  0.00  0.00    +0.000 OA
ATOM     21  C   UNL     1      38.410  49.746  60.145  0.00  0.00    +0.000 C 
ENDBRANCH   4  20
BRANCH   5  22
ATOM     22  O   UNL     1      35.437  51.395  61.033  0.00  0.00    +0.000 OA
ATOM     23  C   UNL     1      34.857  50.206  60.479  0.00  0.00    +0.000 C 
ENDBRANCH   5  22
BRANCH   6  24
ATOM     24  O   UNL     1      34.335  53.569  59.685  0.00  0.00    +0.000 OA
ATOM     25  C   UNL     1      33.453  52.969  58.743  0.00  0.00    +0.000 C 
ENDBRANCH   6  24
TORSDOF 7
ENDMDL
MODEL 5
REMARK VINA RESULT:      -5.9      1.399      2.988
REMARK  Name = 
REMARK  7 active torsions:
REMARK  status: ('A' for Active; 'I' for Inactive)
REMARK    1  A    between atoms: O_2  and  C_3
REMARK    2  A    between atoms: C_6  and  C_7
REMARK    3  A    between atoms: C_8  and  C_9
REMARK    4  A    between atoms: C_11  and  O_12
REMARK    5  A    between atoms: C_14  and  O_15
REMARK    6  A    between atoms: C_17  and  O_18
REMARK    7  A    between atoms: C_20  and  O_21
REMARK                            x       y       z     vdW  Elec       q    Type
REMARK                         _______ _______ _______ _____ _____    ______ ____
ROOT
ATOM      1  C   UNL     1      36.377  55.000  58.683  0.00  0.00    +0.000 A 
ATOM      2  C   UNL     1      35.882  53.756  58.386  0.00  0.00    +0.000 A 
ATOM      3  C   UNL     1      36.272  52.681  59.126  0.00  0.00    +0.000 A 
ATOM      4  C   UNL     1      37.164  52.839  60.175  0.00  0.00    +0.000 A 
ATOM      5  C   UNL     1      37.678  54.076  60.498  0.00  0.00    +0.000 A 
ATOM      6  C   UNL     1      37.260  55.136  59.728  0.00  0.00    +0.000 A 
ENDROOT
BRANCH   1   8
ATOM      7  C   UNL     1      36.402  56.300  56.690  0.00  0.00    +0.000 C 
ATOM      8  C   UNL     1      35.989  56.182  57.921  0.00  0.00    +0.000 C 
BRANCH   7  12
ATOM      9  C   UNL     1      35.355  59.684  54.278  0.00  0.00    +0.000 A 
ATOM     10  C   UNL     1      34.664  59.380  55.425  0.00  0.00    +0.000 A 
ATOM     11  C   UNL     1      35.019  58.285  56.185  0.00  0.00    +0.000 A 
ATOM     12  C   UNL     1      36.064  57.453  55.844  0.00  0.00    +0.000 A 
ATOM     13  C   UNL     1      36.756  57.761  54.691  0.00  0.00    +0.000 A 
ATOM     14  C   UNL     1      36.404  58.866  53.918  0.00  0.00    +0.000 A 
ATOM     15  O   UNL     1      37.161  59.105  52.761  0.00  0.00    +0.000 OA
BRANCH   9  17
ATOM     16  C   UNL     1      35.267  62.100  53.858  0.00  0.00    +0.000 C 
ATOM     17  O   UNL     1      35.049  60.767  53.471  0.00  0.00    +0.000 OA
ENDBRANCH   9  17
ENDBRANCH   7  12
ENDBRANCH   1   8
BRANCH   3  18
ATOM     18  O   UNL     1      35.810  51.376  58.882  0.00  0.00    +0.000 OA
ATOM     19  C   UNL     1      34.558  50.971  59.399  0.00  0.00    +0.000 C 
ENDBRANCH   3  18
BRANCH   4  20
ATOM     20  O   UNL     1      37.556  51.747  60.922  0.00  0.00    +0.000 OA
ATOM     21  C   UNL     1      38.638  50.931  60.513  0.00  0.00    +0.000 C 
ENDBRANCH   4  20
BRANCH   5  22
ATOM     22  O   UNL     1      38.567  54.220  61.547  0.00  0.00    +0.000 OA
ATOM     23  C   UNL     1      39.983  54.289  61.328  0.00  0.00    +0.000 C 
ENDBRANCH   5  22
BRANCH   6  24
ATOM     24  O   UNL     1      37.755  56.405  60.021  0.00  0.00    +0.000 OA
ATOM     25  C   UNL     1      37.108  57.197  61.010  0.00  0.00    +0.000 C 
ENDBRANCH   6  24
TORSDOF 7
ENDMDL
MODEL 6
REMARK VINA RESULT:      -5.8      2.528      8.444
REMARK  Name = 
REMARK  7 active torsions:
REMARK  status: ('A' for Active; 'I' for Inactive)
REMARK    1  A    between atoms: O_2  and  C_3
REMARK    2  A    between atoms: C_6  and  C_7
REMARK    3  A    between atoms: C_8  and  C_9
REMARK    4  A    between atoms: C_11  and  O_12
REMARK    5  A    between atoms: C_14  and  O_15
REMARK    6  A    between atoms: C_17  and  O_18
REMARK    7  A    between atoms: C_20  and  O_21
REMARK                            x       y       z     vdW  Elec       q    Type
REMARK                         _______ _______ _______ _____ _____    ______ ____
ROOT
ATOM      1  C   UNL     1      36.116  57.184  57.589  0.00  0.00    +0.000 A 
ATOM      2  C   UNL     1      36.299  57.190  56.230  0.00  0.00    +0.000 A 
ATOM      3  C   UNL     1      36.773  58.311  55.618  0.00  0.00    +0.000 A 
ATOM      4  C   UNL     1      37.070  59.442  56.363  0.00  0.00    +0.000 A 
ATOM      5  C   UNL     1      36.897  59.466  57.729  0.00  0.00    +0.000 A 
ATOM      6  C   UNL     1      36.417  58.316  58.309  0.00  0.00    +0.000 A 
ENDROOT
BRANCH   1   8
ATOM      7  C   UNL     1      36.335  54.924  58.302  0.00  0.00    +0.000 C 
ATOM      8  C   UNL     1      35.611  56.008  58.289  0.00  0.00    +0.000 C 
BRANCH   7  12
ATOM      9  C   UNL     1      35.103  51.288  60.209  0.00  0.00    +0.000 A 
ATOM     10  C   UNL     1      35.415  51.327  58.872  0.00  0.00    +0.000 A 
ATOM     11  C   UNL     1      35.808  52.509  58.280  0.00  0.00    +0.000 A 
ATOM     12  C   UNL     1      35.909  53.691  58.981  0.00  0.00    +0.000 A 
ATOM     13  C   UNL     1      35.596  53.650  60.324  0.00  0.00    +0.000 A 
ATOM     14  C   UNL     1      35.197  52.460  60.929  0.00  0.00    +0.000 A 
ATOM     15  O   UNL     1      34.897  52.508  62.298  0.00  0.00    +0.000 OA
BRANCH   9  17
ATOM     16  C   UNL     1      35.599  49.252  61.484  0.00  0.00    +0.000 C 
ATOM     17  O   UNL     1      34.701  50.135  60.862  0.00  0.00    +0.000 OA
ENDBRANCH   9  17
ENDBRANCH   7  12
ENDBRANCH   1   8
BRANCH   3  18
ATOM     18  O   UNL     1      36.986  58.394  54.232  0.00  0.00    +0.000 OA
ATOM     19  C   UNL     1      35.881  58.556  53.364  0.00  0.00    +0.000 C 
ENDBRANCH   3  18
BRANCH   4  20
ATOM     20  O   UNL     1      37.550  60.576  55.738  0.00  0.00    +0.000 OA
ATOM     21  C   UNL     1      36.671  61.577  55.261  0.00  0.00    +0.000 C 
ENDBRANCH   4  20
BRANCH   5  22
ATOM     22  O   UNL     1      37.197  60.601  58.459  0.00  0.00    +0.000 OA
ATOM     23  C   UNL     1      36.176  61.518  58.877  0.00  0.00    +0.000 C 
ENDBRANCH   5  22
BRANCH   6  24
ATOM     24  O   UNL     1      36.227  58.298  59.689  0.00  0.00    +0.000 OA
ATOM     25  C   UNL     1      37.331  58.023  60.543  0.00  0.00    +0.000 C 
ENDBRANCH   6  24
TORSDOF 7
ENDMDL
MODEL 7
REMARK VINA RESULT:      -5.6      1.668      8.473
REMARK  Name = 
REMARK  7 active torsions:
REMARK  status: ('A' for Active; 'I' for Inactive)
REMARK    1  A    between atoms: O_2  and  C_3
REMARK    2  A    between atoms: C_6  and  C_7
REMARK    3  A    between atoms: C_8  and  C_9
REMARK    4  A    between atoms: C_11  and  O_12
REMARK    5  A    between atoms: C_14  and  O_15
REMARK    6  A    between atoms: C_17  and  O_18
REMARK    7  A    between atoms: C_20  and  O_21
REMARK                            x       y       z     vdW  Elec       q    Type
REMARK                         _______ _______ _______ _____ _____    ______ ____
ROOT
ATOM      1  C   UNL     1      35.788  57.477  57.060  0.00  0.00    +0.000 A 
ATOM      2  C   UNL     1      36.044  57.516  55.713  0.00  0.00    +0.000 A 
ATOM      3  C   UNL     1      35.391  58.417  54.928  0.00  0.00    +0.000 A 
ATOM      4  C   UNL     1      34.472  59.293  55.484  0.00  0.00    +0.000 A 
ATOM      5  C   UNL     1      34.194  59.278  56.833  0.00  0.00    +0.000 A 
ATOM      6  C   UNL     1      34.873  58.355  57.592  0.00  0.00    +0.000 A 
ENDROOT
BRANCH   1   8
ATOM      7  C   UNL     1      36.224  55.256  57.797  0.00  0.00    +0.000 C 
ATOM      8  C   UNL     1      36.462  56.530  57.942  0.00  0.00    +0.000 C 
BRANCH   7  12
ATOM      9  C   UNL     1      38.121  52.314  60.270  0.00  0.00    +0.000 A 
ATOM     10  C   UNL     1      38.640  53.578  60.132  0.00  0.00    +0.000 A 
ATOM     11  C   UNL     1      38.013  54.508  59.330  0.00  0.00    +0.000 A 
ATOM     12  C   UNL     1      36.854  54.228  58.637  0.00  0.00    +0.000 A 
ATOM     13  C   UNL     1      36.335  52.958  58.777  0.00  0.00    +0.000 A 
ATOM     14  C   UNL     1      36.963  52.012  59.586  0.00  0.00    +0.000 A 
ATOM     15  O   UNL     1      36.367  50.746  59.671  0.00  0.00    +0.000 OA
BRANCH   9  17
ATOM     16  C   UNL     1      39.804  50.567  60.642  0.00  0.00    +0.000 C 
ATOM     17  O   UNL     1      38.703  51.335  61.058  0.00  0.00    +0.000 OA
ENDBRANCH   9  17
ENDBRANCH   7  12
ENDBRANCH   1   8
BRANCH   3  18
ATOM     18  O   UNL     1      35.599  58.516  53.542  0.00  0.00    +0.000 OA
ATOM     19  C   UNL     1      36.836  58.997  53.054  0.00  0.00    +0.000 C 
ENDBRANCH   3  18
BRANCH   4  20
ATOM     20  O   UNL     1      33.813  60.205  54.685  0.00  0.00    +0.000 OA
ATOM     21  C   UNL     1      34.295  61.527  54.531  0.00  0.00    +0.000 C 
ENDBRANCH   4  20
BRANCH   5  22
ATOM     22  O   UNL     1      33.275  60.158  57.375  0.00  0.00    +0.000 OA
ATOM     23  C   UNL     1      31.869  59.872  57.373  0.00  0.00    +0.000 C 
ENDBRANCH   5  22
BRANCH   6  24
ATOM     24  O   UNL     1      34.622  58.306  58.961  0.00  0.00    +0.000 OA
ATOM     25  C   UNL     1      35.273  59.231  59.825  0.00  0.00    +0.000 C 
ENDBRANCH   6  24
TORSDOF 7
ENDMDL
MODEL 8
REMARK VINA RESULT:      -5.6      1.796      2.276
REMARK  Name = 
REMARK  7 active torsions:
REMARK  status: ('A' for Active; 'I' for Inactive)
REMARK    1  A    between atoms: O_2  and  C_3
REMARK    2  A    between atoms: C_6  and  C_7
REMARK    3  A    between atoms: C_8  and  C_9
REMARK    4  A    between atoms: C_11  and  O_12
REMARK    5  A    between atoms: C_14  and  O_15
REMARK    6  A    between atoms: C_17  and  O_18
REMARK    7  A    between atoms: C_20  and  O_21
REMARK                            x       y       z     vdW  Elec       q    Type
REMARK                         _______ _______ _______ _____ _____    ______ ____
ROOT
ATOM      1  C   UNL     1      37.209  54.321  59.652  0.00  0.00    +0.000 A 
ATOM      2  C   UNL     1      38.317  54.759  60.332  0.00  0.00    +0.000 A 
ATOM      3  C   UNL     1      38.771  54.055  61.405  0.00  0.00    +0.000 A 
ATOM      4  C   UNL     1      38.120  52.902  61.812  0.00  0.00    +0.000 A 
ATOM      5  C   UNL     1      37.005  52.437  61.150  0.00  0.00    +0.000 A 
ATOM      6  C   UNL     1      36.577  53.174  60.072  0.00  0.00    +0.000 A 
ENDROOT
BRANCH   1   8
ATOM      7  C   UNL     1      36.325  56.286  58.640  0.00  0.00    +0.000 C 
ATOM      8  C   UNL     1      36.684  55.040  58.496  0.00  0.00    +0.000 C 
BRANCH   7  12
ATOM      9  C   UNL     1      34.809  58.598  55.365  0.00  0.00    +0.000 A 
ATOM     10  C   UNL     1      35.879  57.751  55.210  0.00  0.00    +0.000 A 
ATOM     11  C   UNL     1      36.350  57.017  56.278  0.00  0.00    +0.000 A 
ATOM     12  C   UNL     1      35.786  57.090  57.534  0.00  0.00    +0.000 A 
ATOM     13  C   UNL     1      34.711  57.942  57.687  0.00  0.00    +0.000 A 
ATOM     14  C   UNL     1      34.229  58.687  56.612  0.00  0.00    +0.000 A 
ATOM     15  O   UNL     1      33.134  59.527  56.857  0.00  0.00    +0.000 OA
BRANCH   9  17
ATOM     16  C   UNL     1      35.074  60.210  53.534  0.00  0.00    +0.000 C 
ATOM     17  O   UNL     1      34.289  59.363  54.333  0.00  0.00    +0.000 OA
ENDBRANCH   9  17
ENDBRANCH   7  12
ENDBRANCH   1   8
BRANCH   3  18
ATOM     18  O   UNL     1      39.897  54.441  62.151  0.00  0.00    +0.000 OA
ATOM     19  C   UNL     1      39.993  55.765  62.639  0.00  0.00    +0.000 C 
ENDBRANCH   3  18
BRANCH   4  20
ATOM     20  O   UNL     1      38.584  52.191  62.901  0.00  0.00    +0.000 OA
ATOM     21  C   UNL     1      39.491  51.117  62.742  0.00  0.00    +0.000 C 
ENDBRANCH   4  20
BRANCH   5  22
ATOM     22  O   UNL     1      36.365  51.284  61.567  0.00  0.00    +0.000 OA
ATOM     23  C   UNL     1      35.305  51.320  62.532  0.00  0.00    +0.000 C 
ENDBRANCH   5  22
BRANCH   6  24
ATOM     24  O   UNL     1      35.453  52.739  59.373  0.00  0.00    +0.000 OA
ATOM     25  C   UNL     1      35.586  51.694  58.416  0.00  0.00    +0.000 C 
ENDBRANCH   6  24
TORSDOF 7
ENDMDL
MODEL 9
REMARK VINA RESULT:      -5.6      2.008      8.302
REMARK  Name = 
REMARK  7 active torsions:
REMARK  status: ('A' for Active; 'I' for Inactive)
REMARK    1  A    between atoms: O_2  and  C_3
REMARK    2  A    between atoms: C_6  and  C_7
REMARK    3  A    between atoms: C_8  and  C_9
REMARK    4  A    between atoms: C_11  and  O_12
REMARK    5  A    between atoms: C_14  and  O_15
REMARK    6  A    between atoms: C_17  and  O_18
REMARK    7  A    between atoms: C_20  and  O_21
REMARK                            x       y       z     vdW  Elec       q    Type
REMARK                         _______ _______ _______ _____ _____    ______ ____
ROOT
ATOM      1  C   UNL     1      35.876  56.328  57.721  0.00  0.00    +0.000 A 
ATOM      2  C   UNL     1      36.324  56.613  56.456  0.00  0.00    +0.000 A 
ATOM      3  C   UNL     1      35.897  57.743  55.828  0.00  0.00    +0.000 A 
ATOM      4  C   UNL     1      35.013  58.603  56.460  0.00  0.00    +0.000 A 
ATOM      5  C   UNL     1      34.545  58.344  57.730  0.00  0.00    +0.000 A 
ATOM      6  C   UNL     1      34.999  57.195  58.330  0.00  0.00    +0.000 A 
ENDROOT
BRANCH   1   8
ATOM      7  C   UNL     1      35.661  54.014  58.234  0.00  0.00    +0.000 C 
ATOM      8  C   UNL     1      36.304  55.130  58.435  0.00  0.00    +0.000 C 
BRANCH   7  12
ATOM      9  C   UNL     1      36.625  50.338  60.218  0.00  0.00    +0.000 A 
ATOM     10  C   UNL     1      35.338  50.817  60.180  0.00  0.00    +0.000 A 
ATOM     11  C   UNL     1      35.052  52.003  59.536  0.00  0.00    +0.000 A 
ATOM     12  C   UNL     1      36.019  52.757  58.908  0.00  0.00    +0.000 A 
ATOM     13  C   UNL     1      37.311  52.274  58.947  0.00  0.00    +0.000 A 
ATOM     14  C   UNL     1      37.608  51.077  59.596  0.00  0.00    +0.000 A 
ATOM     15  O   UNL     1      38.947  50.660  59.588  0.00  0.00    +0.000 OA
BRANCH   9  17
ATOM     16  C   UNL     1      37.119  49.041  62.241  0.00  0.00    +0.000 C 
ATOM     17  O   UNL     1      36.978  49.157  60.848  0.00  0.00    +0.000 OA
ENDBRANCH   9  17
ENDBRANCH   7  12
ENDBRANCH   1   8
BRANCH   3  18
ATOM     18  O   UNL     1      36.311  58.102  54.534  0.00  0.00    +0.000 OA
ATOM     19  C   UNL     1      37.637  58.544  54.323  0.00  0.00    +0.000 C 
ENDBRANCH   3  18
BRANCH   4  20
ATOM     20  O   UNL     1      34.583  59.748  55.819  0.00  0.00    +0.000 OA
ATOM     21  C   UNL     1      33.473  59.723  54.942  0.00  0.00    +0.000 C 
ENDBRANCH   4  20
BRANCH   5  22
ATOM     22  O   UNL     1      33.664  59.212  58.348  0.00  0.00    +0.000 OA
ATOM     23  C   UNL     1      34.124  60.364  59.068  0.00  0.00    +0.000 C 
ENDBRANCH   5  22
BRANCH   6  24
ATOM     24  O   UNL     1      34.551  56.895  59.615  0.00  0.00    +0.000 OA
ATOM     25  C   UNL     1      35.288  57.360  60.739  0.00  0.00    +0.000 C 
ENDBRANCH   6  24
TORSDOF 7
ENDMDL
MODEL 10
REMARK VINA RESULT:      -5.6      2.270      8.895
REMARK  Name = 
REMARK  7 active torsions:
REMARK  status: ('A' for Active; 'I' for Inactive)
REMARK    1  A    between atoms: O_2  and  C_3
REMARK    2  A    between atoms: C_6  and  C_7
REMARK    3  A    between atoms: C_8  and  C_9
REMARK    4  A    between atoms: C_11  and  O_12
REMARK    5  A    between atoms: C_14  and  O_15
REMARK    6  A    between atoms: C_17  and  O_18
REMARK    7  A    between atoms: C_20  and  O_21
REMARK                            x       y       z     vdW  Elec       q    Type
REMARK                         _______ _______ _______ _____ _____    ______ ____
ROOT
ATOM      1  C   UNL     1      34.855  57.991  57.377  0.00  0.00    +0.000 A 
ATOM      2  C   UNL     1      33.999  58.842  58.029  0.00  0.00    +0.000 A 
ATOM      3  C   UNL     1      33.315  59.783  57.320  0.00  0.00    +0.000 A 
ATOM      4  C   UNL     1      33.482  59.884  55.948  0.00  0.00    +0.000 A 
ATOM      5  C   UNL     1      34.334  59.044  55.266  0.00  0.00    +0.000 A 
ATOM      6  C   UNL     1      35.006  58.108  56.016  0.00  0.00    +0.000 A 
ENDROOT
BRANCH   1   8
ATOM      7  C   UNL     1      35.044  56.352  59.092  0.00  0.00    +0.000 C 
ATOM      8  C   UNL     1      35.609  56.967  58.092  0.00  0.00    +0.000 C 
BRANCH   7  12
ATOM      9  C   UNL     1      37.101  53.339  61.342  0.00  0.00    +0.000 A 
ATOM     10  C   UNL     1      37.784  54.298  60.635  0.00  0.00    +0.000 A 
ATOM     11  C   UNL     1      37.101  55.257  59.918  0.00  0.00    +0.000 A 
ATOM     12  C   UNL     1      35.724  55.307  59.871  0.00  0.00    +0.000 A 
ATOM     13  C   UNL     1      35.040  54.342  60.582  0.00  0.00    +0.000 A 
ATOM     14  C   UNL     1      35.723  53.370  61.309  0.00  0.00    +0.000 A 
ATOM     15  O   UNL     1      34.949  52.427  62.002  0.00  0.00    +0.000 OA
BRANCH   9  17
ATOM     16  C   UNL     1      38.302  52.578  63.342  0.00  0.00    +0.000 C 
ATOM     17  O   UNL     1      37.727  52.349  62.081  0.00  0.00    +0.000 OA
ENDBRANCH   9  17
ENDBRANCH   7  12
ENDBRANCH   1   8
BRANCH   3  18
ATOM     18  O   UNL     1      32.422  60.689  57.916  0.00  0.00    +0.000 OA
ATOM     19  C   UNL     1      31.961  60.453  59.232  0.00  0.00    +0.000 C 
ENDBRANCH   3  18
BRANCH   4  20
ATOM     20  O   UNL     1      32.787  60.840  55.234  0.00  0.00    +0.000 OA
ATOM     21  C   UNL     1      31.478  60.589  54.757  0.00  0.00    +0.000 C 
ENDBRANCH   4  20
BRANCH   5  22
ATOM     22  O   UNL     1      34.491  59.156  53.897  0.00  0.00    +0.000 OA
ATOM     23  C   UNL     1      35.328  60.165  53.316  0.00  0.00    +0.000 C 
ENDBRANCH   5  22
BRANCH   6  24
ATOM     24  O   UNL     1      35.878  57.238  55.365  0.00  0.00    +0.000 OA
ATOM     25  C   UNL     1      37.182  57.687  55.014  0.00  0.00    +0.000 C 
ENDBRANCH   6  24
TORSDOF 7
ENDMDL
