REMARK  Name = 
REMARK  2 active torsions:
REMARK  status: ('A' for Active; 'I' for Inactive)
REMARK    1  A    between atoms: C_4  and  C_5
REMARK    2  A    between atoms: C_6  and  C_7
REMARK                            x       y       z     vdW  Elec       q    Type
REMARK                         _______ _______ _______ _____ _____    ______ ____
ROOT
ATOM      1  C   UNL     1       0.474   0.475  -0.198  0.00  0.00    +0.000 C 
ATOM      2  C   UNL     1      -0.474  -0.343   0.149  0.00  0.00    +0.000 C 
ENDROOT
BRANCH   1   6
ATOM      3  O   UNL     1       4.184  -2.580   0.738  0.00  0.00    +0.000 OA
ATOM      4  C   UNL     1       3.753  -1.332   0.302  0.00  0.00    +0.000 A 
ATOM      5  C   UNL     1       2.393  -1.064   0.271  0.00  0.00    +0.000 A 
ATOM      6  C   UNL     1       1.899   0.152  -0.150  0.00  0.00    +0.000 A 
ATOM      7  C   UNL     1       2.827   1.093  -0.542  0.00  0.00    +0.000 A 
ATOM      8  C   UNL     1       4.199   0.841  -0.518  0.00  0.00    +0.000 A 
ATOM      9  O   UNL     1       5.108   1.816  -0.921  0.00  0.00    +0.000 OA
ATOM     10  C   UNL     1       4.654  -0.389  -0.089  0.00  0.00    +0.000 A 
ATOM     11  O   UNL     1       6.026  -0.681  -0.051  0.00  0.00    +0.000 OA
ENDBRANCH   1   6
BRANCH   2  12
ATOM     12  C   UNL     1      -1.894  -0.053   0.114  0.00  0.00    +0.000 A 
ATOM     13  C   UNL     1      -2.758  -1.053   0.524  0.00  0.00    +0.000 A 
ATOM     14  C   UNL     1      -4.138  -0.870   0.525  0.00  0.00    +0.000 A 
ATOM     15  O   UNL     1      -4.976  -1.908   0.948  0.00  0.00    +0.000 OA
ATOM     16  C   UNL     1      -4.647   0.350   0.103  0.00  0.00    +0.000 A 
ATOM     17  O   UNL     1      -6.027   0.493   0.120  0.00  0.00    +0.000 OA
ATOM     18  C   UNL     1      -3.806   1.359  -0.309  0.00  0.00    +0.000 A 
ATOM     19  O   UNL     1      -4.356   2.565  -0.724  0.00  0.00    +0.000 OA
ATOM     20  C   UNL     1      -2.440   1.129  -0.293  0.00  0.00    +0.000 A 
ENDBRANCH   2  12
TORSDOF 2
