REMARK  Name = 
REMARK  6 active torsions:
REMARK  status: ('A' for Active; 'I' for Inactive)
REMARK    1  A    between atoms: O_2  and  C_3
REMARK    2  A    between atoms: C_6  and  C_7
REMARK    3  A    between atoms: C_8  and  C_9
REMARK    4  A    between atoms: C_11  and  O_12
REMARK    5  A    between atoms: C_14  and  O_15
REMARK    6  A    between atoms: C_17  and  O_18
REMARK                            x       y       z     vdW  Elec       q    Type
REMARK                         _______ _______ _______ _____ _____    ______ ____
ROOT
ATOM      1  C   UNL     1      -0.876   0.500  -0.159  0.00  0.00    +0.000 C 
ATOM      2  C   UNL     1      -0.007  -0.479  -0.270  0.00  0.00    +0.000 C 
ENDROOT
BRANCH   1   6
ATOM      3  C   UNL     1      -5.098  -0.076  -0.274  0.00  0.00    +0.000 A 
ATOM      4  C   UNL     1      -4.527   1.171  -0.115  0.00  0.00    +0.000 A 
ATOM      5  C   UNL     1      -3.161   1.361  -0.077  0.00  0.00    +0.000 A 
ATOM      6  C   UNL     1      -2.323   0.298  -0.199  0.00  0.00    +0.000 A 
ATOM      7  C   UNL     1      -2.874  -0.959  -0.359  0.00  0.00    +0.000 A 
ATOM      8  O   UNL     1      -1.994  -2.050  -0.484  0.00  0.00    +0.000 OA
ATOM      9  C   UNL     1      -4.241  -1.144  -0.396  0.00  0.00    +0.000 A 
ATOM     10  O   UNL     1      -4.769  -2.430  -0.560  0.00  0.00    +0.000 OA
BRANCH   3  12
ATOM     11  C   UNL     1      -7.314   0.899  -0.177  0.00  0.00    +0.000 C 
ATOM     12  O   UNL     1      -6.496  -0.248  -0.310  0.00  0.00    +0.000 OA
ENDBRANCH   3  12
ENDBRANCH   1   6
BRANCH   2  13
ATOM     13  C   UNL     1       1.416  -0.179  -0.218  0.00  0.00    +0.000 A 
ATOM     14  C   UNL     1       1.875   1.105  -0.055  0.00  0.00    +0.000 A 
ATOM     15  C   UNL     1       3.229   1.402  -0.005  0.00  0.00    +0.000 A 
ATOM     16  C   UNL     1       4.108   0.352  -0.125  0.00  0.00    +0.000 A 
ATOM     17  C   UNL     1       3.694  -0.955  -0.289  0.00  0.00    +0.000 A 
ATOM     18  C   UNL     1       2.337  -1.198  -0.334  0.00  0.00    +0.000 A 
BRANCH  15  19
ATOM     19  O   UNL     1       3.673   2.704   0.160  0.00  0.00    +0.000 OA
ATOM     20  C   UNL     1       2.826   3.806   0.287  0.00  0.00    +0.000 C 
ENDBRANCH  15  19
BRANCH  16  21
ATOM     21  O   UNL     1       5.471   0.682  -0.070  0.00  0.00    +0.000 OA
ATOM     22  C   UNL     1       6.179   0.710   1.156  0.00  0.00    +0.000 C 
ENDBRANCH  16  21
BRANCH  17  23
ATOM     23  O   UNL     1       4.648  -1.964  -0.404  0.00  0.00    +0.000 OA
ATOM     24  C   UNL     1       4.225  -3.310  -0.574  0.00  0.00    +0.000 C 
ENDBRANCH  17  23
ENDBRANCH   2  13
TORSDOF 6
