REMARK  Name = 
REMARK  7 active torsions:
REMARK  status: ('A' for Active; 'I' for Inactive)
REMARK    1  A    between atoms: O_2  and  C_3
REMARK    2  A    between atoms: C_6  and  C_7
REMARK    3  A    between atoms: C_8  and  C_9
REMARK    4  A    between atoms: C_11  and  O_12
REMARK    5  A    between atoms: C_14  and  O_15
REMARK    6  A    between atoms: C_17  and  O_18
REMARK    7  A    between atoms: C_20  and  O_21
REMARK                            x       y       z     vdW  Elec       q    Type
REMARK                         _______ _______ _______ _____ _____    ______ ____
ROOT
ATOM      1  C   UNL     1      -1.161   0.152  -0.014  0.00  0.00    +0.000 A 
ATOM      2  C   UNL     1      -1.405   1.502  -0.021  0.00  0.00    +0.000 A 
ATOM      3  C   UNL     1      -2.689   1.955  -0.040  0.00  0.00    +0.000 A 
ATOM      4  C   UNL     1      -3.747   1.060  -0.052  0.00  0.00    +0.000 A 
ATOM      5  C   UNL     1      -3.534  -0.301  -0.045  0.00  0.00    +0.000 A 
ATOM      6  C   UNL     1      -2.225  -0.719  -0.026  0.00  0.00    +0.000 A 
ENDROOT
BRANCH   1   8
ATOM      7  C   UNL     1       1.200   0.450   0.018  0.00  0.00    +0.000 C 
ATOM      8  C   UNL     1       0.196  -0.382   0.006  0.00  0.00    +0.000 C 
BRANCH   7  12
ATOM      9  C   UNL     1       5.310  -0.765   0.078  0.00  0.00    +0.000 A 
ATOM     10  C   UNL     1       4.954   0.562   0.069  0.00  0.00    +0.000 A 
ATOM     11  C   UNL     1       3.625   0.929   0.049  0.00  0.00    +0.000 A 
ATOM     12  C   UNL     1       2.601   0.006   0.038  0.00  0.00    +0.000 A 
ATOM     13  C   UNL     1       2.961  -1.326   0.047  0.00  0.00    +0.000 A 
ATOM     14  C   UNL     1       4.302  -1.705   0.067  0.00  0.00    +0.000 A 
ATOM     15  O   UNL     1       4.578  -3.080   0.075  0.00  0.00    +0.000 OA
BRANCH   9  17
ATOM     16  C   UNL     1       7.723  -0.323   0.110  0.00  0.00    +0.000 C 
ATOM     17  O   UNL     1       6.625  -1.199   0.097  0.00  0.00    +0.000 OA
ENDBRANCH   9  17
ENDBRANCH   7  12
ENDBRANCH   1   8
BRANCH   3  18
ATOM     18  O   UNL     1      -3.018   3.321  -0.049  0.00  0.00    +0.000 OA
ATOM     19  C   UNL     1      -1.986   4.288  -0.038  0.00  0.00    +0.000 C 
ENDBRANCH   3  18
BRANCH   4  20
ATOM     20  O   UNL     1      -5.047   1.524  -0.071  0.00  0.00    +0.000 OA
ATOM     21  C   UNL     1      -5.720   1.767  -1.292  0.00  0.00    +0.000 C 
ENDBRANCH   4  20
BRANCH   5  22
ATOM     22  O   UNL     1      -4.599  -1.183  -0.057  0.00  0.00    +0.000 OA
ATOM     23  C   UNL     1      -5.161  -1.666  -1.285  0.00  0.00    +0.000 C 
ENDBRANCH   5  22
BRANCH   6  24
ATOM     24  O   UNL     1      -1.965  -2.088  -0.018  0.00  0.00    +0.000 OA
ATOM     25  C   UNL     1      -1.817  -2.779  -1.253  0.00  0.00    +0.000 C 
ENDBRANCH   6  24
TORSDOF 7
