REMARK  Name = 
REMARK  4 active torsions:
REMARK  status: ('A' for Active; 'I' for Inactive)
REMARK    1  A    between atoms: O_2  and  C_3
REMARK    2  A    between atoms: C_6  and  C_7
REMARK    3  A    between atoms: C_8  and  C_9
REMARK    4  A    between atoms: C_18  and  O_19
REMARK                            x       y       z     vdW  Elec       q    Type
REMARK                         _______ _______ _______ _____ _____    ______ ____
ROOT
ATOM      1  C   UNL     1       4.029   0.044  -0.459  0.00  0.00    +0.000 A 
ATOM      2  C   UNL     1       3.493   1.265  -0.852  0.00  0.00    +0.000 A 
ATOM      3  C   UNL     1       2.132   1.415  -0.729  0.00  0.00    +0.000 A 
ATOM      4  C   UNL     1       1.287   0.442  -0.248  0.00  0.00    +0.000 A 
ATOM      5  C   UNL     1       1.829  -0.762   0.137  0.00  0.00    +0.000 A 
ATOM      6  C   UNL     1       3.191  -0.952   0.029  0.00  0.00    +0.000 A 
ENDROOT
BRANCH   1   8
ATOM      7  C   UNL     1       6.240   0.813  -1.044  0.00  0.00    +0.000 C 
ATOM      8  O   UNL     1       5.396  -0.207  -0.545  0.00  0.00    +0.000 OA
ENDBRANCH   1   8
BRANCH   4   9
ATOM      9  C   UNL     1      -0.144   0.687  -0.152  0.00  0.00    +0.000 C 
ATOM     10  C   UNL     1      -1.000  -0.188   0.293  0.00  0.00    +0.000 C 
BRANCH  10  11
ATOM     11  C   UNL     1      -2.443   0.074   0.384  0.00  0.00    +0.000 A 
ATOM     12  C   UNL     1      -3.245  -0.929   0.871  0.00  0.00    +0.000 A 
ATOM     13  C   UNL     1      -4.598  -0.698   0.962  0.00  0.00    +0.000 A 
ATOM     14  O   UNL     1      -5.457  -1.694   1.454  0.00  0.00    +0.000 OA
ATOM     15  C   UNL     1      -5.154   0.513   0.576  0.00  0.00    +0.000 A 
ATOM     16  C   UNL     1      -4.352   1.529   0.084  0.00  0.00    +0.000 A 
ATOM     17  O   UNL     1      -4.930   2.724  -0.293  0.00  0.00    +0.000 OA
ATOM     18  C   UNL     1      -3.005   1.268   0.005  0.00  0.00    +0.000 A 
ENDBRANCH  10  11
ENDBRANCH   4   9
BRANCH   6  19
ATOM     19  O   UNL     1       3.778  -2.154   0.408  0.00  0.00    +0.000 OA
ATOM     20  C   UNL     1       2.953  -3.188   0.909  0.00  0.00    +0.000 C 
ENDBRANCH   6  19
TORSDOF 4
