REMARK  Name = 
REMARK  6 active torsions:
REMARK  status: ('A' for Active; 'I' for Inactive)
REMARK    1  A    between atoms: O_2  and  C_3
REMARK    2  A    between atoms: C_6  and  C_7
REMARK    3  A    between atoms: C_8  and  C_9
REMARK    4  A    between atoms: C_11  and  O_12
REMARK    5  A    between atoms: C_14  and  O_15
REMARK    6  A    between atoms: C_17  and  O_18
REMARK                            x       y       z     vdW  Elec       q    Type
REMARK                         _______ _______ _______ _____ _____    ______ ____
ROOT
ATOM      1  C   UNL     1       1.341   0.239  -0.488  0.00  0.00    +0.000 A 
ATOM      2  C   UNL     1       2.298   0.297  -1.480  0.00  0.00    +0.000 A 
ATOM      3  C   UNL     1       3.608   0.559  -1.135  0.00  0.00    +0.000 A 
ATOM      4  C   UNL     1       4.001   0.766   0.179  0.00  0.00    +0.000 A 
ATOM      5  C   UNL     1       3.040   0.708   1.183  0.00  0.00    +0.000 A 
ATOM      6  C   UNL     1       1.756   0.449   0.817  0.00  0.00    +0.000 A 
ENDROOT
BRANCH   1   8
ATOM      7  C   UNL     1      -0.923  -0.080   0.171  0.00  0.00    +0.000 C 
ATOM      8  C   UNL     1      -0.074  -0.039  -0.814  0.00  0.00    +0.000 C 
BRANCH   7  12
ATOM      9  C   UNL     1      -5.098  -0.852  -0.352  0.00  0.00    +0.000 A 
ATOM     10  C   UNL     1      -4.240  -0.820  -1.429  0.00  0.00    +0.000 A 
ATOM     11  C   UNL     1      -2.876  -0.569  -1.271  0.00  0.00    +0.000 A 
ATOM     12  C   UNL     1      -2.360  -0.346  -0.012  0.00  0.00    +0.000 A 
ATOM     13  C   UNL     1      -3.219  -0.379   1.065  0.00  0.00    +0.000 A 
ATOM     14  C   UNL     1      -4.574  -0.628   0.914  0.00  0.00    +0.000 A 
ATOM     15  N   UNL     1      -5.468  -0.664   2.020  0.00  0.00    +0.000 NA
BRANCH   9  17
ATOM     16  C   UNL     1      -6.951  -1.327  -1.821  0.00  0.00    +0.000 C 
ATOM     17  O   UNL     1      -6.452  -1.104  -0.534  0.00  0.00    +0.000 OA
ENDBRANCH   9  17
ENDBRANCH   7  12
ENDBRANCH   1   8
BRANCH   3  18
ATOM     18  O   UNL     1       4.614   0.627  -2.117  0.00  0.00    +0.000 OA
ATOM     19  C   UNL     1       4.275   0.424  -3.480  0.00  0.00    +0.000 C 
ENDBRANCH   3  18
BRANCH   4  20
ATOM     20  O   UNL     1       5.309   1.029   0.544  0.00  0.00    +0.000 OA
ATOM     21  C   UNL     1       6.171  -0.050   0.855  0.00  0.00    +0.000 C 
ENDBRANCH   4  20
BRANCH   5  22
ATOM     22  O   UNL     1       3.409   0.911   2.500  0.00  0.00    +0.000 OA
ATOM     23  C   UNL     1       2.413   0.847   3.502  0.00  0.00    +0.000 C 
ENDBRANCH   5  22
TORSDOF 6
