MODEL 1
REMARK VINA RESULT:      -6.2      0.000      0.000
REMARK  Name = 
REMARK  5 active torsions:
REMARK  status: ('A' for Active; 'I' for Inactive)
REMARK    1  A    between atoms: O_2  and  C_3
REMARK    2  A    between atoms: C_5  and  C_6
REMARK    3  A    between atoms: C_7  and  C_8
REMARK    4  A    between atoms: C_13  and  O_14
REMARK    5  A    between atoms: C_18  and  O_19
REMARK                            x       y       z     vdW  Elec       q    Type
REMARK                         _______ _______ _______ _____ _____    ______ ____
ROOT
ATOM      1  C   UNL     1      36.534  57.942  59.104  0.00  0.00    +0.000 C 
ATOM      2  C   UNL     1      36.453  56.914  59.817  0.00  0.00    +0.000 C 
ENDROOT
BRANCH   2   3
ATOM      3  C   UNL     1      35.549  55.825  59.641  0.00  0.00    +0.000 A 
ATOM      4  C   UNL     1      34.257  55.645  60.005  0.00  0.00    +0.000 A 
ATOM      5  C   UNL     1      33.495  54.524  59.766  0.00  0.00    +0.000 A 
ATOM      6  C   UNL     1      34.043  53.447  59.095  0.00  0.00    +0.000 A 
ATOM      7  O   UNL     1      33.325  52.294  58.826  0.00  0.00    +0.000 OA
ATOM      8  C   UNL     1      35.357  53.590  58.707  0.00  0.00    +0.000 A 
ATOM      9  C   UNL     1      36.097  54.717  58.956  0.00  0.00    +0.000 A 
BRANCH   8  10
ATOM     10  O   UNL     1      35.905  52.502  58.031  0.00  0.00    +0.000 OA
ATOM     11  C   UNL     1      36.782  51.653  58.741  0.00  0.00    +0.000 C 
ENDBRANCH   8  10
ENDBRANCH   2   3
BRANCH   1  14
ATOM     12  C   UNL     1      33.825  59.053  56.729  0.00  0.00    +0.000 A 
ATOM     13  C   UNL     1      34.521  58.795  57.886  0.00  0.00    +0.000 A 
ATOM     14  C   UNL     1      35.747  58.243  57.968  0.00  0.00    +0.000 A 
ATOM     15  C   UNL     1      36.307  57.924  56.718  0.00  0.00    +0.000 A 
ATOM     16  C   UNL     1      35.648  58.163  55.542  0.00  0.00    +0.000 A 
ATOM     17  C   UNL     1      34.399  58.731  55.534  0.00  0.00    +0.000 A 
BRANCH  12  19
ATOM     18  C   UNL     1      32.141  60.516  55.766  0.00  0.00    +0.000 C 
ATOM     19  O   UNL     1      32.567  59.629  56.787  0.00  0.00    +0.000 OA
ENDBRANCH  12  19
BRANCH  16  20
ATOM     20  O   UNL     1      36.250  57.827  54.313  0.00  0.00    +0.000 OA
ATOM     21  C   UNL     1      36.173  58.732  53.228  0.00  0.00    +0.000 C 
ENDBRANCH  16  20
ENDBRANCH   1  14
TORSDOF 5
ENDMDL
MODEL 2
REMARK VINA RESULT:      -6.1      0.138      2.394
REMARK  Name = 
REMARK  5 active torsions:
REMARK  status: ('A' for Active; 'I' for Inactive)
REMARK    1  A    between atoms: O_2  and  C_3
REMARK    2  A    between atoms: C_5  and  C_6
REMARK    3  A    between atoms: C_7  and  C_8
REMARK    4  A    between atoms: C_13  and  O_14
REMARK    5  A    between atoms: C_18  and  O_19
REMARK                            x       y       z     vdW  Elec       q    Type
REMARK                         _______ _______ _______ _____ _____    ______ ____
ROOT
ATOM      1  C   UNL     1      36.533  57.950  59.149  0.00  0.00    +0.000 C 
ATOM      2  C   UNL     1      36.383  56.960  59.904  0.00  0.00    +0.000 C 
ENDROOT
BRANCH   2   3
ATOM      3  C   UNL     1      35.524  55.843  59.685  0.00  0.00    +0.000 A 
ATOM      4  C   UNL     1      34.220  55.623  59.980  0.00  0.00    +0.000 A 
ATOM      5  C   UNL     1      33.506  54.480  59.705  0.00  0.00    +0.000 A 
ATOM      6  C   UNL     1      34.123  53.418  59.067  0.00  0.00    +0.000 A 
ATOM      7  O   UNL     1      33.456  52.243  58.764  0.00  0.00    +0.000 OA
ATOM      8  C   UNL     1      35.451  53.601  58.749  0.00  0.00    +0.000 A 
ATOM      9  C   UNL     1      36.141  54.751  59.034  0.00  0.00    +0.000 A 
BRANCH   8  10
ATOM     10  O   UNL     1      36.067  52.530  58.107  0.00  0.00    +0.000 OA
ATOM     11  C   UNL     1      37.044  51.801  58.820  0.00  0.00    +0.000 C 
ENDBRANCH   8  10
ENDBRANCH   2   3
BRANCH   1  14
ATOM     12  C   UNL     1      35.569  58.124  55.508  0.00  0.00    +0.000 A 
ATOM     13  C   UNL     1      36.273  57.869  56.661  0.00  0.00    +0.000 A 
ATOM     14  C   UNL     1      35.881  58.172  57.913  0.00  0.00    +0.000 A 
ATOM     15  C   UNL     1      34.627  58.806  57.975  0.00  0.00    +0.000 A 
ATOM     16  C   UNL     1      33.893  59.079  56.851  0.00  0.00    +0.000 A 
ATOM     17  C   UNL     1      34.356  58.741  55.605  0.00  0.00    +0.000 A 
BRANCH  12  19
ATOM     18  C   UNL     1      36.225  58.720  53.247  0.00  0.00    +0.000 C 
ATOM     19  O   UNL     1      36.090  57.758  54.279  0.00  0.00    +0.000 OA
ENDBRANCH  12  19
BRANCH  16  20
ATOM     20  O   UNL     1      32.641  59.717  56.963  0.00  0.00    +0.000 OA
ATOM     21  C   UNL     1      32.181  60.538  55.906  0.00  0.00    +0.000 C 
ENDBRANCH  16  20
ENDBRANCH   1  14
TORSDOF 5
ENDMDL
MODEL 3
REMARK VINA RESULT:      -5.9      1.815      6.556
REMARK  Name = 
REMARK  5 active torsions:
REMARK  status: ('A' for Active; 'I' for Inactive)
REMARK    1  A    between atoms: O_2  and  C_3
REMARK    2  A    between atoms: C_5  and  C_6
REMARK    3  A    between atoms: C_7  and  C_8
REMARK    4  A    between atoms: C_13  and  O_14
REMARK    5  A    between atoms: C_18  and  O_19
REMARK                            x       y       z     vdW  Elec       q    Type
REMARK                         _______ _______ _______ _____ _____    ______ ____
ROOT
ATOM      1  C   UNL     1      34.965  56.816  59.585  0.00  0.00    +0.000 C 
ATOM      2  C   UNL     1      34.693  57.723  58.763  0.00  0.00    +0.000 C 
ENDROOT
BRANCH   2   3
ATOM      3  C   UNL     1      35.135  57.807  57.410  0.00  0.00    +0.000 A 
ATOM      4  C   UNL     1      36.200  57.274  56.764  0.00  0.00    +0.000 A 
ATOM      5  C   UNL     1      36.508  57.439  55.433  0.00  0.00    +0.000 A 
ATOM      6  C   UNL     1      35.693  58.212  54.626  0.00  0.00    +0.000 A 
ATOM      7  O   UNL     1      35.952  58.413  53.281  0.00  0.00    +0.000 OA
ATOM      8  C   UNL     1      34.597  58.772  55.246  0.00  0.00    +0.000 A 
ATOM      9  C   UNL     1      34.310  58.593  56.574  0.00  0.00    +0.000 A 
BRANCH   8  10
ATOM     10  O   UNL     1      33.779  59.549  54.429  0.00  0.00    +0.000 OA
ATOM     11  C   UNL     1      32.748  60.297  55.039  0.00  0.00    +0.000 C 
ENDBRANCH   8  10
ENDBRANCH   2   3
BRANCH   1  14
ATOM     12  C   UNL     1      36.313  53.448  58.559  0.00  0.00    +0.000 A 
ATOM     13  C   UNL     1      35.460  54.510  58.750  0.00  0.00    +0.000 A 
ATOM     14  C   UNL     1      35.769  55.677  59.346  0.00  0.00    +0.000 A 
ATOM     15  C   UNL     1      37.102  55.750  59.791  0.00  0.00    +0.000 A 
ATOM     16  C   UNL     1      37.983  54.716  59.622  0.00  0.00    +0.000 A 
ATOM     17  C   UNL     1      37.599  53.553  59.004  0.00  0.00    +0.000 A 
BRANCH  12  19
ATOM     18  C   UNL     1      35.147  51.320  58.657  0.00  0.00    +0.000 C 
ATOM     19  O   UNL     1      35.865  52.300  57.927  0.00  0.00    +0.000 OA
ENDBRANCH  12  19
BRANCH  16  20
ATOM     20  O   UNL     1      39.309  54.835  60.085  0.00  0.00    +0.000 OA
ATOM     21  C   UNL     1      40.134  53.686  60.138  0.00  0.00    +0.000 C 
ENDBRANCH  16  20
ENDBRANCH   1  14
TORSDOF 5
ENDMDL
MODEL 4
REMARK VINA RESULT:      -5.8      1.559      6.744
REMARK  Name = 
REMARK  5 active torsions:
REMARK  status: ('A' for Active; 'I' for Inactive)
REMARK    1  A    between atoms: O_2  and  C_3
REMARK    2  A    between atoms: C_5  and  C_6
REMARK    3  A    between atoms: C_7  and  C_8
REMARK    4  A    between atoms: C_13  and  O_14
REMARK    5  A    between atoms: C_18  and  O_19
REMARK                            x       y       z     vdW  Elec       q    Type
REMARK                         _______ _______ _______ _____ _____    ______ ____
ROOT
ATOM      1  C   UNL     1      35.074  56.753  59.641  0.00  0.00    +0.000 C 
ATOM      2  C   UNL     1      34.841  57.721  58.879  0.00  0.00    +0.000 C 
ENDROOT
BRANCH   2   3
ATOM      3  C   UNL     1      35.180  57.819  57.497  0.00  0.00    +0.000 A 
ATOM      4  C   UNL     1      36.207  57.314  56.772  0.00  0.00    +0.000 A 
ATOM      5  C   UNL     1      36.413  57.490  55.424  0.00  0.00    +0.000 A 
ATOM      6  C   UNL     1      35.522  58.245  54.682  0.00  0.00    +0.000 A 
ATOM      7  O   UNL     1      35.677  58.456  53.322  0.00  0.00    +0.000 OA
ATOM      8  C   UNL     1      34.462  58.777  55.383  0.00  0.00    +0.000 A 
ATOM      9  C   UNL     1      34.278  58.588  56.728  0.00  0.00    +0.000 A 
BRANCH   8  10
ATOM     10  O   UNL     1      33.568  59.536  54.632  0.00  0.00    +0.000 OA
ATOM     11  C   UNL     1      33.392  60.893  54.981  0.00  0.00    +0.000 C 
ENDBRANCH   8  10
ENDBRANCH   2   3
BRANCH   1  14
ATOM     12  C   UNL     1      37.583  54.071  58.787  0.00  0.00    +0.000 A 
ATOM     13  C   UNL     1      37.036  55.285  59.129  0.00  0.00    +0.000 A 
ATOM     14  C   UNL     1      35.725  55.546  59.293  0.00  0.00    +0.000 A 
ATOM     15  C   UNL     1      34.895  54.430  59.077  0.00  0.00    +0.000 A 
ATOM     16  C   UNL     1      35.400  53.204  58.734  0.00  0.00    +0.000 A 
ATOM     17  C   UNL     1      36.749  53.011  58.585  0.00  0.00    +0.000 A 
BRANCH  12  19
ATOM     18  C   UNL     1      39.521  52.683  58.320  0.00  0.00    +0.000 C 
ATOM     19  O   UNL     1      38.955  53.940  58.652  0.00  0.00    +0.000 OA
ENDBRANCH  12  19
BRANCH  16  20
ATOM     20  O   UNL     1      34.529  52.115  58.528  0.00  0.00    +0.000 OA
ATOM     21  C   UNL     1      34.585  51.004  59.404  0.00  0.00    +0.000 C 
ENDBRANCH  16  20
ENDBRANCH   1  14
TORSDOF 5
ENDMDL
MODEL 5
REMARK VINA RESULT:      -5.7      1.882      3.163
REMARK  Name = 
REMARK  5 active torsions:
REMARK  status: ('A' for Active; 'I' for Inactive)
REMARK    1  A    between atoms: O_2  and  C_3
REMARK    2  A    between atoms: C_5  and  C_6
REMARK    3  A    between atoms: C_7  and  C_8
REMARK    4  A    between atoms: C_13  and  O_14
REMARK    5  A    between atoms: C_18  and  O_19
REMARK                            x       y       z     vdW  Elec       q    Type
REMARK                         _______ _______ _______ _____ _____    ______ ____
ROOT
ATOM      1  C   UNL     1      34.563  57.660  58.810  0.00  0.00    +0.000 C 
ATOM      2  C   UNL     1      34.718  56.617  59.488  0.00  0.00    +0.000 C 
ENDROOT
BRANCH   2   3
ATOM      3  C   UNL     1      35.759  55.652  59.341  0.00  0.00    +0.000 A 
ATOM      4  C   UNL     1      37.070  55.667  59.682  0.00  0.00    +0.000 A 
ATOM      5  C   UNL     1      37.972  54.648  59.479  0.00  0.00    +0.000 A 
ATOM      6  C   UNL     1      37.563  53.473  58.874  0.00  0.00    +0.000 A 
ATOM      7  O   UNL     1      38.426  52.415  58.645  0.00  0.00    +0.000 OA
ATOM      8  C   UNL     1      36.235  53.418  58.513  0.00  0.00    +0.000 A 
ATOM      9  C   UNL     1      35.354  54.446  58.726  0.00  0.00    +0.000 A 
BRANCH   8  10
ATOM     10  O   UNL     1      35.828  52.233  57.905  0.00  0.00    +0.000 OA
ATOM     11  C   UNL     1      35.068  51.321  58.671  0.00  0.00    +0.000 C 
ENDBRANCH   8  10
ENDBRANCH   2   3
BRANCH   1  14
ATOM     12  C   UNL     1      36.200  58.292  55.473  0.00  0.00    +0.000 A 
ATOM     13  C   UNL     1      35.350  57.807  56.439  0.00  0.00    +0.000 A 
ATOM     14  C   UNL     1      35.388  58.106  57.751  0.00  0.00    +0.000 A 
ATOM     15  C   UNL     1      36.417  59.001  58.097  0.00  0.00    +0.000 A 
ATOM     16  C   UNL     1      37.285  59.506  57.167  0.00  0.00    +0.000 A 
ATOM     17  C   UNL     1      37.187  59.158  55.844  0.00  0.00    +0.000 A 
BRANCH  12  19
ATOM     18  C   UNL     1      35.962  58.876  53.127  0.00  0.00    +0.000 C 
ATOM     19  O   UNL     1      36.049  57.901  54.153  0.00  0.00    +0.000 OA
ENDBRANCH  12  19
BRANCH  16  20
ATOM     20  O   UNL     1      38.301  60.401  57.561  0.00  0.00    +0.000 OA
ATOM     21  C   UNL     1      37.972  61.750  57.837  0.00  0.00    +0.000 C 
ENDBRANCH  16  20
ENDBRANCH   1  14
TORSDOF 5
ENDMDL
MODEL 6
REMARK VINA RESULT:      -5.7     11.613     15.430
REMARK  Name = 
REMARK  5 active torsions:
REMARK  status: ('A' for Active; 'I' for Inactive)
REMARK    1  A    between atoms: O_2  and  C_3
REMARK    2  A    between atoms: C_5  and  C_6
REMARK    3  A    between atoms: C_7  and  C_8
REMARK    4  A    between atoms: C_13  and  O_14
REMARK    5  A    between atoms: C_18  and  O_19
REMARK                            x       y       z     vdW  Elec       q    Type
REMARK                         _______ _______ _______ _____ _____    ______ ____
ROOT
ATOM      1  C   UNL     1      28.615  42.272  61.995  0.00  0.00    +0.000 C 
ATOM      2  C   UNL     1      29.134  43.238  62.603  0.00  0.00    +0.000 C 
ENDROOT
BRANCH   2   3
ATOM      3  C   UNL     1      28.807  44.618  62.447  0.00  0.00    +0.000 A 
ATOM      4  C   UNL     1      27.624  45.267  62.335  0.00  0.00    +0.000 A 
ATOM      5  C   UNL     1      27.453  46.625  62.189  0.00  0.00    +0.000 A 
ATOM      6  C   UNL     1      28.556  47.458  62.145  0.00  0.00    +0.000 A 
ATOM      7  O   UNL     1      28.446  48.831  62.000  0.00  0.00    +0.000 OA
ATOM      8  C   UNL     1      29.780  46.836  62.256  0.00  0.00    +0.000 A 
ATOM      9  C   UNL     1      29.925  45.481  62.401  0.00  0.00    +0.000 A 
BRANCH   8  10
ATOM     10  O   UNL     1      30.887  47.680  62.211  0.00  0.00    +0.000 OA
ATOM     11  C   UNL     1      32.156  47.101  61.986  0.00  0.00    +0.000 C 
ENDBRANCH   8  10
ENDBRANCH   2   3
BRANCH   1  14
ATOM     12  C   UNL     1      25.324  42.404  60.160  0.00  0.00    +0.000 A 
ATOM     13  C   UNL     1      26.253  42.331  61.172  0.00  0.00    +0.000 A 
ATOM     14  C   UNL     1      27.591  42.342  61.022  0.00  0.00    +0.000 A 
ATOM     15  C   UNL     1      28.009  42.438  59.682  0.00  0.00    +0.000 A 
ATOM     16  C   UNL     1      27.118  42.512  58.645  0.00  0.00    +0.000 A 
ATOM     17  C   UNL     1      25.765  42.496  58.873  0.00  0.00    +0.000 A 
BRANCH  12  19
ATOM     18  C   UNL     1      23.016  42.321  59.409  0.00  0.00    +0.000 C 
ATOM     19  O   UNL     1      23.971  42.384  60.455  0.00  0.00    +0.000 OA
ENDBRANCH  12  19
BRANCH  16  20
ATOM     20  O   UNL     1      27.584  42.608  57.318  0.00  0.00    +0.000 OA
ATOM     21  C   UNL     1      26.697  42.345  56.248  0.00  0.00    +0.000 C 
ENDBRANCH  16  20
ENDBRANCH   1  14
TORSDOF 5
ENDMDL
MODEL 7
REMARK VINA RESULT:      -5.6      4.724      6.626
REMARK  Name = 
REMARK  5 active torsions:
REMARK  status: ('A' for Active; 'I' for Inactive)
REMARK    1  A    between atoms: O_2  and  C_3
REMARK    2  A    between atoms: C_5  and  C_6
REMARK    3  A    between atoms: C_7  and  C_8
REMARK    4  A    between atoms: C_13  and  O_14
REMARK    5  A    between atoms: C_18  and  O_19
REMARK                            x       y       z     vdW  Elec       q    Type
REMARK                         _______ _______ _______ _____ _____    ______ ____
ROOT
ATOM      1  C   UNL     1      36.284  55.164  59.436  0.00  0.00    +0.000 C 
ATOM      2  C   UNL     1      35.240  54.512  59.671  0.00  0.00    +0.000 C 
ENDROOT
BRANCH   2   3
ATOM      3  C   UNL     1      35.161  53.145  60.073  0.00  0.00    +0.000 A 
ATOM      4  C   UNL     1      35.003  51.997  59.372  0.00  0.00    +0.000 A 
ATOM      5  C   UNL     1      34.944  50.727  59.898  0.00  0.00    +0.000 A 
ATOM      6  C   UNL     1      35.050  50.540  61.265  0.00  0.00    +0.000 A 
ATOM      7  O   UNL     1      34.998  49.286  61.851  0.00  0.00    +0.000 OA
ATOM      8  C   UNL     1      35.213  51.685  62.014  0.00  0.00    +0.000 A 
ATOM      9  C   UNL     1      35.268  52.940  61.467  0.00  0.00    +0.000 A 
BRANCH   8  10
ATOM     10  O   UNL     1      35.319  51.491  63.389  0.00  0.00    +0.000 OA
ATOM     11  C   UNL     1      36.533  51.845  64.018  0.00  0.00    +0.000 C 
ENDBRANCH   8  10
ENDBRANCH   2   3
BRANCH   1  14
ATOM     12  C   UNL     1      39.607  53.485  58.837  0.00  0.00    +0.000 A 
ATOM     13  C   UNL     1      38.308  53.905  58.672  0.00  0.00    +0.000 A 
ATOM     14  C   UNL     1      37.613  54.685  59.522  0.00  0.00    +0.000 A 
ATOM     15  C   UNL     1      38.342  55.069  60.662  0.00  0.00    +0.000 A 
ATOM     16  C   UNL     1      39.636  54.671  60.865  0.00  0.00    +0.000 A 
ATOM     17  C   UNL     1      40.283  53.876  59.955  0.00  0.00    +0.000 A 
BRANCH  12  19
ATOM     18  C   UNL     1      41.609  52.489  57.890  0.00  0.00    +0.000 C 
ATOM     19  O   UNL     1      40.205  52.682  57.881  0.00  0.00    +0.000 OA
ENDBRANCH  12  19
BRANCH  16  20
ATOM     20  O   UNL     1      40.327  55.081  62.024  0.00  0.00    +0.000 OA
ATOM     21  C   UNL     1      39.783  56.107  62.833  0.00  0.00    +0.000 C 
ENDBRANCH  16  20
ENDBRANCH   1  14
TORSDOF 5
ENDMDL
MODEL 8
REMARK VINA RESULT:      -5.6      2.174      6.786
REMARK  Name = 
REMARK  5 active torsions:
REMARK  status: ('A' for Active; 'I' for Inactive)
REMARK    1  A    between atoms: O_2  and  C_3
REMARK    2  A    between atoms: C_5  and  C_6
REMARK    3  A    between atoms: C_7  and  C_8
REMARK    4  A    between atoms: C_13  and  O_14
REMARK    5  A    between atoms: C_18  and  O_19
REMARK                            x       y       z     vdW  Elec       q    Type
REMARK                         _______ _______ _______ _____ _____    ______ ____
ROOT
ATOM      1  C   UNL     1      35.696  56.896  59.730  0.00  0.00    +0.000 C 
ATOM      2  C   UNL     1      35.612  57.906  58.993  0.00  0.00    +0.000 C 
ENDROOT
BRANCH   2   3
ATOM      3  C   UNL     1      36.028  58.005  57.632  0.00  0.00    +0.000 A 
ATOM      4  C   UNL     1      35.778  57.236  56.544  0.00  0.00    +0.000 A 
ATOM      5  C   UNL     1      36.251  57.453  55.271  0.00  0.00    +0.000 A 
ATOM      6  C   UNL     1      37.064  58.542  55.012  0.00  0.00    +0.000 A 
ATOM      7  O   UNL     1      37.569  58.811  53.751  0.00  0.00    +0.000 OA
ATOM      8  C   UNL     1      37.342  59.350  56.093  0.00  0.00    +0.000 A 
ATOM      9  C   UNL     1      36.859  59.114  57.354  0.00  0.00    +0.000 A 
BRANCH   8  10
ATOM     10  O   UNL     1      38.160  60.446  55.827  0.00  0.00    +0.000 OA
ATOM     11  C   UNL     1      39.183  60.751  56.753  0.00  0.00    +0.000 C 
ENDBRANCH   8  10
ENDBRANCH   2   3
BRANCH   1  14
ATOM     12  C   UNL     1      37.920  53.959  58.928  0.00  0.00    +0.000 A 
ATOM     13  C   UNL     1      37.499  55.217  59.290  0.00  0.00    +0.000 A 
ATOM     14  C   UNL     1      36.220  55.632  59.370  0.00  0.00    +0.000 A 
ATOM     15  C   UNL     1      35.281  54.638  59.040  0.00  0.00    +0.000 A 
ATOM     16  C   UNL     1      35.658  53.374  58.673  0.00  0.00    +0.000 A 
ATOM     17  C   UNL     1      36.982  53.020  58.614  0.00  0.00    +0.000 A 
BRANCH  12  19
ATOM     18  C   UNL     1      39.756  52.664  58.005  0.00  0.00    +0.000 C 
ATOM     19  O   UNL     1      39.272  53.663  58.886  0.00  0.00    +0.000 OA
ENDBRANCH  12  19
BRANCH  16  20
ATOM     20  O   UNL     1      34.680  52.411  58.351  0.00  0.00    +0.000 OA
ATOM     21  C   UNL     1      34.605  51.216  59.106  0.00  0.00    +0.000 C 
ENDBRANCH  16  20
ENDBRANCH   1  14
TORSDOF 5
ENDMDL
MODEL 9
REMARK VINA RESULT:      -5.5      2.210      6.656
REMARK  Name = 
REMARK  5 active torsions:
REMARK  status: ('A' for Active; 'I' for Inactive)
REMARK    1  A    between atoms: O_2  and  C_3
REMARK    2  A    between atoms: C_5  and  C_6
REMARK    3  A    between atoms: C_7  and  C_8
REMARK    4  A    between atoms: C_13  and  O_14
REMARK    5  A    between atoms: C_18  and  O_19
REMARK                            x       y       z     vdW  Elec       q    Type
REMARK                         _______ _______ _______ _____ _____    ______ ____
ROOT
ATOM      1  C   UNL     1      35.063  56.731  59.433  0.00  0.00    +0.000 C 
ATOM      2  C   UNL     1      34.961  57.695  58.637  0.00  0.00    +0.000 C 
ENDROOT
BRANCH   2   3
ATOM      3  C   UNL     1      35.639  57.848  57.392  0.00  0.00    +0.000 A 
ATOM      4  C   UNL     1      35.696  57.071  56.283  0.00  0.00    +0.000 A 
ATOM      5  C   UNL     1      36.400  57.346  55.134  0.00  0.00    +0.000 A 
ATOM      6  C   UNL     1      37.141  58.511  55.041  0.00  0.00    +0.000 A 
ATOM      7  O   UNL     1      37.869  58.842  53.910  0.00  0.00    +0.000 OA
ATOM      8  C   UNL     1      37.109  59.330  56.148  0.00  0.00    +0.000 A 
ATOM      9  C   UNL     1      36.399  59.034  57.283  0.00  0.00    +0.000 A 
BRANCH   8  10
ATOM     10  O   UNL     1      37.855  60.502  56.049  0.00  0.00    +0.000 OA
ATOM     11  C   UNL     1      38.981  60.646  56.890  0.00  0.00    +0.000 C 
ENDBRANCH   8  10
ENDBRANCH   2   3
BRANCH   1  14
ATOM     12  C   UNL     1      36.444  53.326  58.588  0.00  0.00    +0.000 A 
ATOM     13  C   UNL     1      35.585  54.393  58.709  0.00  0.00    +0.000 A 
ATOM     14  C   UNL     1      35.875  55.585  59.265  0.00  0.00    +0.000 A 
ATOM     15  C   UNL     1      37.193  55.678  59.748  0.00  0.00    +0.000 A 
ATOM     16  C   UNL     1      38.079  54.639  59.649  0.00  0.00    +0.000 A 
ATOM     17  C   UNL     1      37.715  53.451  59.067  0.00  0.00    +0.000 A 
BRANCH  12  19
ATOM     18  C   UNL     1      35.149  51.273  58.687  0.00  0.00    +0.000 C 
ATOM     19  O   UNL     1      36.016  52.152  57.990  0.00  0.00    +0.000 OA
ENDBRANCH  12  19
BRANCH  16  20
ATOM     20  O   UNL     1      39.391  54.779  60.147  0.00  0.00    +0.000 OA
ATOM     21  C   UNL     1      40.185  53.626  60.352  0.00  0.00    +0.000 C 
ENDBRANCH  16  20
ENDBRANCH   1  14
TORSDOF 5
ENDMDL
MODEL 10
REMARK VINA RESULT:      -5.4      3.899      6.791
REMARK  Name = 
REMARK  5 active torsions:
REMARK  status: ('A' for Active; 'I' for Inactive)
REMARK    1  A    between atoms: O_2  and  C_3
REMARK    2  A    between atoms: C_5  and  C_6
REMARK    3  A    between atoms: C_7  and  C_8
REMARK    4  A    between atoms: C_13  and  O_14
REMARK    5  A    between atoms: C_18  and  O_19
REMARK                            x       y       z     vdW  Elec       q    Type
REMARK                         _______ _______ _______ _____ _____    ______ ____
ROOT
ATOM      1  C   UNL     1      35.397  51.459  58.554  0.00  0.00    +0.000 C 
ATOM      2  C   UNL     1      34.738  50.860  59.436  0.00  0.00    +0.000 C 
ENDROOT
BRANCH   2   3
ATOM      3  C   UNL     1      34.982  50.877  60.841  0.00  0.00    +0.000 A 
ATOM      4  C   UNL     1      35.169  51.889  61.722  0.00  0.00    +0.000 A 
ATOM      5  C   UNL     1      35.398  51.758  63.072  0.00  0.00    +0.000 A 
ATOM      6  C   UNL     1      35.452  50.500  63.645  0.00  0.00    +0.000 A 
ATOM      7  O   UNL     1      35.677  50.307  64.997  0.00  0.00    +0.000 OA
ATOM      8  C   UNL     1      35.265  49.442  62.782  0.00  0.00    +0.000 A 
ATOM      9  C   UNL     1      35.039  49.597  61.439  0.00  0.00    +0.000 A 
BRANCH   8  10
ATOM     10  O   UNL     1      35.320  48.178  63.364  0.00  0.00    +0.000 OA
ATOM     11  C   UNL     1      34.503  47.161  62.822  0.00  0.00    +0.000 C 
ENDBRANCH   8  10
ENDBRANCH   2   3
BRANCH   1  14
ATOM     12  C   UNL     1      38.845  52.825  59.230  0.00  0.00    +0.000 A 
ATOM     13  C   UNL     1      37.802  51.949  59.041  0.00  0.00    +0.000 A 
ATOM     14  C   UNL     1      36.528  52.283  58.763  0.00  0.00    +0.000 A 
ATOM     15  C   UNL     1      36.313  53.670  58.673  0.00  0.00    +0.000 A 
ATOM     16  C   UNL     1      37.323  54.576  58.856  0.00  0.00    +0.000 A 
ATOM     17  C   UNL     1      38.601  54.164  59.136  0.00  0.00    +0.000 A 
BRANCH  12  19
ATOM     18  C   UNL     1      41.255  53.134  59.212  0.00  0.00    +0.000 C 
ATOM     19  O   UNL     1      40.114  52.346  59.510  0.00  0.00    +0.000 OA
ENDBRANCH  12  19
BRANCH  16  20
ATOM     20  O   UNL     1      37.060  55.958  58.756  0.00  0.00    +0.000 OA
ATOM     21  C   UNL     1      36.132  56.422  57.794  0.00  0.00    +0.000 C 
ENDBRANCH  16  20
ENDBRANCH   1  14
TORSDOF 5
ENDMDL
