REMARK  Name = 
REMARK  5 active torsions:
REMARK  status: ('A' for Active; 'I' for Inactive)
REMARK    1  A    between atoms: C_2  and  C_3
REMARK    2  A    between atoms: C_5  and  O_6
REMARK    3  A    between atoms: O_6  and  C_7
REMARK    4  A    between atoms: C_12  and  C_13
REMARK    5  A    between atoms: C_14  and  C_15
REMARK                            x       y       z     vdW  Elec       q    Type
REMARK                         _______ _______ _______ _____ _____    ______ ____
ROOT
ATOM      1  C   UNL     1       0.440  -1.000  -0.057  0.00  0.00    +0.000 A 
ATOM      2  C   UNL     1       0.924  -2.318  -0.482  0.00  0.00    +0.000 A 
ATOM      3  C   UNL     1       0.040  -3.403  -0.502  0.00  0.00    +0.000 A 
ATOM      4  O   UNL     1       0.559  -4.654  -0.963  0.00  0.00    +0.000 OA
ATOM      5  C   UNL     1      -1.228  -3.244  -0.127  0.00  0.00    +0.000 A 
ATOM      6  C   UNL     1      -1.732  -1.937   0.307  0.00  0.00    +0.000 A 
ATOM      7  C   UNL     1      -0.866  -1.031   0.285  0.00  0.00    +0.000 A 
ENDROOT
BRANCH   6   8
ATOM      8  C   UNL     1      -3.110  -2.309   0.567  0.00  0.00    +0.000 C 
ATOM      9  C   UNL     1      -4.055  -1.685   0.609  0.00  0.00    +0.000 C 
BRANCH   9  10
ATOM     10  C   UNL     1      -4.297  -0.337   0.430  0.00  0.00    +0.000 A 
ATOM     11  C   UNL     1      -5.671  -0.064   0.675  0.00  0.00    +0.000 A 
ATOM     12  C   UNL     1      -6.179   1.178   0.558  0.00  0.00    +0.000 A 
ATOM     13  C   UNL     1      -5.398   2.243   0.196  0.00  0.00    +0.000 A 
ATOM     14  O   UNL     1      -5.936   3.502   0.064  0.00  0.00    +0.000 OA
ATOM     15  C   UNL     1      -4.015   2.014  -0.064  0.00  0.00    +0.000 A 
ATOM     16  C   UNL     1      -3.525   0.710   0.075  0.00  0.00    +0.000 A 
ENDBRANCH   9  10
ENDBRANCH   6   8
BRANCH   1  17
ATOM     17  O   UNL     1       1.339  -0.075  -0.042  0.00  0.00    +0.000 OA
BRANCH  17  20
ATOM     18  C   UNL     1       4.694   0.484  -0.219  0.00  0.00    +0.000 C 
ATOM     19  O   UNL     1       3.450  -0.119   0.477  0.00  0.00    +0.000 OA
ATOM     20  C   UNL     1       2.339   0.760  -0.151  0.00  0.00    +0.000 C 
ATOM     21  C   UNL     1       2.983   1.396  -1.379  0.00  0.00    +0.000 C 
ATOM     22  O   UNL     1       1.819   2.135  -1.918  0.00  0.00    +0.000 OA
ATOM     23  C   UNL     1       3.575   2.801  -0.500  0.00  0.00    +0.000 C 
ATOM     24  O   UNL     1       4.634   2.929  -1.565  0.00  0.00    +0.000 OA
ATOM     25  C   UNL     1       4.601   1.976   0.551  0.00  0.00    +0.000 C 
ATOM     26  O   UNL     1       3.489   1.714   1.574  0.00  0.00    +0.000 OA
BRANCH  18  28
ATOM     27  O   UNL     1       5.440  -1.529   0.683  0.00  0.00    +0.000 OA
ATOM     28  C   UNL     1       5.686  -0.137   0.918  0.00  0.00    +0.000 C 
ENDBRANCH  18  28
ENDBRANCH  17  20
ENDBRANCH   1  17
TORSDOF 5
