MODEL 1
REMARK VINA RESULT:      -6.3      0.000      0.000
REMARK  Name = 
REMARK  4 active torsions:
REMARK  status: ('A' for Active; 'I' for Inactive)
REMARK    1  A    between atoms: O_2  and  C_3
REMARK    2  A    between atoms: C_6  and  C_7
REMARK    3  A    between atoms: C_8  and  C_9
REMARK    4  A    between atoms: C_18  and  O_19
REMARK                            x       y       z     vdW  Elec       q    Type
REMARK                         _______ _______ _______ _____ _____    ______ ____
ROOT
ATOM      1  C   UNL     1      36.966  54.017  60.842  0.00  0.00    +0.000 A 
ATOM      2  C   UNL     1      37.097  55.401  60.857  0.00  0.00    +0.000 A 
ATOM      3  C   UNL     1      36.842  56.062  59.679  0.00  0.00    +0.000 A 
ATOM      4  C   UNL     1      36.472  55.442  58.509  0.00  0.00    +0.000 A 
ATOM      5  C   UNL     1      36.347  54.072  58.506  0.00  0.00    +0.000 A 
ATOM      6  C   UNL     1      36.594  53.372  59.668  0.00  0.00    +0.000 A 
ENDROOT
BRANCH   1   8
ATOM      7  C   UNL     1      38.500  53.270  62.548  0.00  0.00    +0.000 C 
ATOM      8  O   UNL     1      37.203  53.255  61.984  0.00  0.00    +0.000 OA
ENDBRANCH   1   8
BRANCH   4   9
ATOM      9  C   UNL     1      36.221  56.222  57.306  0.00  0.00    +0.000 C 
ATOM     10  C   UNL     1      35.550  57.338  57.294  0.00  0.00    +0.000 C 
BRANCH  10  11
ATOM     11  C   UNL     1      35.305  58.114  56.071  0.00  0.00    +0.000 A 
ATOM     12  C   UNL     1      34.168  58.884  56.020  0.00  0.00    +0.000 A 
ATOM     13  C   UNL     1      33.925  59.616  54.881  0.00  0.00    +0.000 A 
ATOM     14  O   UNL     1      32.776  60.417  54.783  0.00  0.00    +0.000 OA
ATOM     15  C   UNL     1      34.798  59.590  53.803  0.00  0.00    +0.000 A 
ATOM     16  C   UNL     1      35.946  58.817  53.847  0.00  0.00    +0.000 A 
ATOM     17  O   UNL     1      36.797  58.809  52.761  0.00  0.00    +0.000 OA
ATOM     18  C   UNL     1      36.160  58.096  54.997  0.00  0.00    +0.000 A 
ENDBRANCH  10  11
ENDBRANCH   4   9
BRANCH   6  19
ATOM     19  O   UNL     1      36.479  51.987  59.707  0.00  0.00    +0.000 OA
ATOM     20  C   UNL     1      35.440  51.368  58.973  0.00  0.00    +0.000 C 
ENDBRANCH   6  19
TORSDOF 4
ENDMDL
MODEL 2
REMARK VINA RESULT:      -6.3      0.167      1.859
REMARK  Name = 
REMARK  4 active torsions:
REMARK  status: ('A' for Active; 'I' for Inactive)
REMARK    1  A    between atoms: O_2  and  C_3
REMARK    2  A    between atoms: C_6  and  C_7
REMARK    3  A    between atoms: C_8  and  C_9
REMARK    4  A    between atoms: C_18  and  O_19
REMARK                            x       y       z     vdW  Elec       q    Type
REMARK                         _______ _______ _______ _____ _____    ______ ____
ROOT
ATOM      1  C   UNL     1      37.107  53.968  60.846  0.00  0.00    +0.000 A 
ATOM      2  C   UNL     1      37.274  55.348  60.828  0.00  0.00    +0.000 A 
ATOM      3  C   UNL     1      36.929  56.001  59.669  0.00  0.00    +0.000 A 
ATOM      4  C   UNL     1      36.437  55.376  58.546  0.00  0.00    +0.000 A 
ATOM      5  C   UNL     1      36.278  54.011  58.576  0.00  0.00    +0.000 A 
ATOM      6  C   UNL     1      36.613  53.319  59.721  0.00  0.00    +0.000 A 
ENDROOT
BRANCH   1   8
ATOM      7  C   UNL     1      38.544  53.606  62.751  0.00  0.00    +0.000 C 
ATOM      8  O   UNL     1      37.428  53.216  61.973  0.00  0.00    +0.000 OA
ENDBRANCH   1   8
BRANCH   4   9
ATOM      9  C   UNL     1      36.098  56.147  57.360  0.00  0.00    +0.000 C 
ATOM     10  C   UNL     1      35.609  57.354  57.396  0.00  0.00    +0.000 C 
BRANCH  10  11
ATOM     11  C   UNL     1      35.270  58.120  56.189  0.00  0.00    +0.000 A 
ATOM     12  C   UNL     1      36.148  58.071  55.134  0.00  0.00    +0.000 A 
ATOM     13  C   UNL     1      35.844  58.784  53.997  0.00  0.00    +0.000 A 
ATOM     14  O   UNL     1      36.713  58.764  52.893  0.00  0.00    +0.000 OA
ATOM     15  C   UNL     1      34.683  59.537  53.902  0.00  0.00    +0.000 A 
ATOM     16  C   UNL     1      33.793  59.590  54.962  0.00  0.00    +0.000 A 
ATOM     17  O   UNL     1      32.645  60.347  54.842  0.00  0.00    +0.000 OA
ATOM     18  C   UNL     1      34.124  58.869  56.083  0.00  0.00    +0.000 A 
ENDBRANCH  10  11
ENDBRANCH   4   9
BRANCH   6  19
ATOM     19  O   UNL     1      36.465  51.938  59.792  0.00  0.00    +0.000 OA
ATOM     20  C   UNL     1      35.579  51.300  58.894  0.00  0.00    +0.000 C 
ENDBRANCH   6  19
TORSDOF 4
ENDMDL
MODEL 3
REMARK VINA RESULT:      -6.3      1.300      1.639
REMARK  Name = 
REMARK  4 active torsions:
REMARK  status: ('A' for Active; 'I' for Inactive)
REMARK    1  A    between atoms: O_2  and  C_3
REMARK    2  A    between atoms: C_6  and  C_7
REMARK    3  A    between atoms: C_8  and  C_9
REMARK    4  A    between atoms: C_18  and  O_19
REMARK                            x       y       z     vdW  Elec       q    Type
REMARK                         _______ _______ _______ _____ _____    ______ ____
ROOT
ATOM      1  C   UNL     1      36.858  53.970  60.940  0.00  0.00    +0.000 A 
ATOM      2  C   UNL     1      35.673  54.683  60.795  0.00  0.00    +0.000 A 
ATOM      3  C   UNL     1      35.505  55.377  59.620  0.00  0.00    +0.000 A 
ATOM      4  C   UNL     1      36.426  55.405  58.599  0.00  0.00    +0.000 A 
ATOM      5  C   UNL     1      37.594  54.696  58.754  0.00  0.00    +0.000 A 
ATOM      6  C   UNL     1      37.801  53.986  59.919  0.00  0.00    +0.000 A 
ENDROOT
BRANCH   1   8
ATOM      7  C   UNL     1      36.265  52.161  62.422  0.00  0.00    +0.000 C 
ATOM      8  O   UNL     1      37.124  53.236  62.092  0.00  0.00    +0.000 OA
ENDBRANCH   1   8
BRANCH   4   9
ATOM      9  C   UNL     1      36.165  56.168  57.388  0.00  0.00    +0.000 C 
ATOM     10  C   UNL     1      35.538  57.309  57.373  0.00  0.00    +0.000 C 
BRANCH  10  11
ATOM     11  C   UNL     1      35.281  58.068  56.141  0.00  0.00    +0.000 A 
ATOM     12  C   UNL     1      34.152  58.849  56.095  0.00  0.00    +0.000 A 
ATOM     13  C   UNL     1      33.899  59.565  54.948  0.00  0.00    +0.000 A 
ATOM     14  O   UNL     1      32.756  60.376  54.855  0.00  0.00    +0.000 OA
ATOM     15  C   UNL     1      34.754  59.512  53.857  0.00  0.00    +0.000 A 
ATOM     16  C   UNL     1      35.894  58.727  53.896  0.00  0.00    +0.000 A 
ATOM     17  O   UNL     1      36.728  58.692  52.796  0.00  0.00    +0.000 OA
ATOM     18  C   UNL     1      36.119  58.023  55.054  0.00  0.00    +0.000 A 
ENDBRANCH  10  11
ENDBRANCH   4   9
BRANCH   6  19
ATOM     19  O   UNL     1      38.969  53.257  60.114  0.00  0.00    +0.000 OA
ATOM     20  C   UNL     1      40.209  53.937  60.104  0.00  0.00    +0.000 C 
ENDBRANCH   6  19
TORSDOF 4
ENDMDL
MODEL 4
REMARK VINA RESULT:      -6.2      1.282      2.302
REMARK  Name = 
REMARK  4 active torsions:
REMARK  status: ('A' for Active; 'I' for Inactive)
REMARK    1  A    between atoms: O_2  and  C_3
REMARK    2  A    between atoms: C_6  and  C_7
REMARK    3  A    between atoms: C_8  and  C_9
REMARK    4  A    between atoms: C_18  and  O_19
REMARK                            x       y       z     vdW  Elec       q    Type
REMARK                         _______ _______ _______ _____ _____    ______ ____
ROOT
ATOM      1  C   UNL     1      36.903  53.962  60.793  0.00  0.00    +0.000 A 
ATOM      2  C   UNL     1      35.762  54.754  60.738  0.00  0.00    +0.000 A 
ATOM      3  C   UNL     1      35.556  55.468  59.581  0.00  0.00    +0.000 A 
ATOM      4  C   UNL     1      36.401  55.442  58.496  0.00  0.00    +0.000 A 
ATOM      5  C   UNL     1      37.527  54.655  58.563  0.00  0.00    +0.000 A 
ATOM      6  C   UNL     1      37.769  53.923  59.707  0.00  0.00    +0.000 A 
ENDROOT
BRANCH   1   8
ATOM      7  C   UNL     1      36.340  52.133  62.262  0.00  0.00    +0.000 C 
ATOM      8  O   UNL     1      37.202  53.201  61.921  0.00  0.00    +0.000 OA
ENDBRANCH   1   8
BRANCH   4   9
ATOM      9  C   UNL     1      36.105  56.231  57.309  0.00  0.00    +0.000 C 
ATOM     10  C   UNL     1      35.474  57.370  57.336  0.00  0.00    +0.000 C 
BRANCH  10  11
ATOM     11  C   UNL     1      35.182  58.155  56.129  0.00  0.00    +0.000 A 
ATOM     12  C   UNL     1      36.052  58.050  55.072  0.00  0.00    +0.000 A 
ATOM     13  C   UNL     1      35.791  58.779  53.935  0.00  0.00    +0.000 A 
ATOM     14  O   UNL     1      36.653  58.703  52.829  0.00  0.00    +0.000 OA
ATOM     15  C   UNL     1      34.681  59.605  53.843  0.00  0.00    +0.000 A 
ATOM     16  C   UNL     1      33.799  59.717  54.905  0.00  0.00    +0.000 A 
ATOM     17  O   UNL     1      32.701  60.546  54.788  0.00  0.00    +0.000 OA
ATOM     18  C   UNL     1      34.086  58.976  56.026  0.00  0.00    +0.000 A 
ENDBRANCH  10  11
ENDBRANCH   4   9
BRANCH   6  19
ATOM     19  O   UNL     1      38.896  53.115  59.814  0.00  0.00    +0.000 OA
ATOM     20  C   UNL     1      39.351  52.424  58.667  0.00  0.00    +0.000 C 
ENDBRANCH   6  19
TORSDOF 4
ENDMDL
MODEL 5
REMARK VINA RESULT:      -5.9      1.364      2.269
REMARK  Name = 
REMARK  4 active torsions:
REMARK  status: ('A' for Active; 'I' for Inactive)
REMARK    1  A    between atoms: O_2  and  C_3
REMARK    2  A    between atoms: C_6  and  C_7
REMARK    3  A    between atoms: C_8  and  C_9
REMARK    4  A    between atoms: C_18  and  O_19
REMARK                            x       y       z     vdW  Elec       q    Type
REMARK                         _______ _______ _______ _____ _____    ______ ____
ROOT
ATOM      1  C   UNL     1      37.895  52.515  59.833  0.00  0.00    +0.000 A 
ATOM      2  C   UNL     1      38.602  53.681  59.561  0.00  0.00    +0.000 A 
ATOM      3  C   UNL     1      37.919  54.686  58.918  0.00  0.00    +0.000 A 
ATOM      4  C   UNL     1      36.600  54.603  58.536  0.00  0.00    +0.000 A 
ATOM      5  C   UNL     1      35.912  53.444  58.809  0.00  0.00    +0.000 A 
ATOM      6  C   UNL     1      36.562  52.412  59.454  0.00  0.00    +0.000 A 
ENDROOT
BRANCH   1   8
ATOM      7  C   UNL     1      38.630  51.485  61.888  0.00  0.00    +0.000 C 
ATOM      8  O   UNL     1      38.497  51.439  60.480  0.00  0.00    +0.000 OA
ENDBRANCH   1   8
BRANCH   4   9
ATOM      9  C   UNL     1      35.956  55.718  57.858  0.00  0.00    +0.000 C 
ATOM     10  C   UNL     1      36.437  56.293  56.793  0.00  0.00    +0.000 C 
BRANCH  10  11
ATOM     11  C   UNL     1      35.774  57.419  56.119  0.00  0.00    +0.000 A 
ATOM     12  C   UNL     1      36.115  57.672  54.813  0.00  0.00    +0.000 A 
ATOM     13  C   UNL     1      35.502  58.722  54.170  0.00  0.00    +0.000 A 
ATOM     14  O   UNL     1      35.819  59.018  52.834  0.00  0.00    +0.000 OA
ATOM     15  C   UNL     1      34.562  59.515  54.810  0.00  0.00    +0.000 A 
ATOM     16  C   UNL     1      34.213  59.266  56.127  0.00  0.00    +0.000 A 
ATOM     17  O   UNL     1      33.274  60.070  56.741  0.00  0.00    +0.000 OA
ATOM     18  C   UNL     1      34.842  58.211  56.743  0.00  0.00    +0.000 A 
ENDBRANCH  10  11
ENDBRANCH   4   9
BRANCH   6  19
ATOM     19  O   UNL     1      35.902  51.225  59.749  0.00  0.00    +0.000 OA
ATOM     20  C   UNL     1      34.565  51.062  59.317  0.00  0.00    +0.000 C 
ENDBRANCH   6  19
TORSDOF 4
ENDMDL
MODEL 6
REMARK VINA RESULT:      -5.8      1.743      2.203
REMARK  Name = 
REMARK  4 active torsions:
REMARK  status: ('A' for Active; 'I' for Inactive)
REMARK    1  A    between atoms: O_2  and  C_3
REMARK    2  A    between atoms: C_6  and  C_7
REMARK    3  A    between atoms: C_8  and  C_9
REMARK    4  A    between atoms: C_18  and  O_19
REMARK                            x       y       z     vdW  Elec       q    Type
REMARK                         _______ _______ _______ _____ _____    ______ ____
ROOT
ATOM      1  C   UNL     1      35.777  53.498  60.646  0.00  0.00    +0.000 A 
ATOM      2  C   UNL     1      34.782  54.405  60.300  0.00  0.00    +0.000 A 
ATOM      3  C   UNL     1      35.054  55.257  59.256  0.00  0.00    +0.000 A 
ATOM      4  C   UNL     1      36.233  55.261  58.548  0.00  0.00    +0.000 A 
ATOM      5  C   UNL     1      37.210  54.360  58.901  0.00  0.00    +0.000 A 
ATOM      6  C   UNL     1      36.976  53.488  59.944  0.00  0.00    +0.000 A 
ENDROOT
BRANCH   1   8
ATOM      7  C   UNL     1      35.015  51.337  61.403  0.00  0.00    +0.000 C 
ATOM      8  O   UNL     1      35.600  52.593  61.690  0.00  0.00    +0.000 OA
ENDBRANCH   1   8
BRANCH   4   9
ATOM      9  C   UNL     1      36.436  56.200  57.455  0.00  0.00    +0.000 C 
ATOM     10  C   UNL     1      35.825  57.347  57.363  0.00  0.00    +0.000 C 
BRANCH  10  11
ATOM     11  C   UNL     1      36.040  58.285  56.253  0.00  0.00    +0.000 A 
ATOM     12  C   UNL     1      36.804  59.399  56.497  0.00  0.00    +0.000 A 
ATOM     13  C   UNL     1      37.014  60.286  55.466  0.00  0.00    +0.000 A 
ATOM     14  O   UNL     1      37.789  61.440  55.669  0.00  0.00    +0.000 OA
ATOM     15  C   UNL     1      36.475  60.074  54.206  0.00  0.00    +0.000 A 
ATOM     16  C   UNL     1      35.703  58.953  53.952  0.00  0.00    +0.000 A 
ATOM     17  O   UNL     1      35.178  58.765  52.690  0.00  0.00    +0.000 OA
ATOM     18  C   UNL     1      35.511  58.086  55.001  0.00  0.00    +0.000 A 
ENDBRANCH  10  11
ENDBRANCH   4   9
BRANCH   6  19
ATOM     19  O   UNL     1      37.938  52.561  60.331  0.00  0.00    +0.000 OA
ATOM     20  C   UNL     1      38.298  51.534  59.427  0.00  0.00    +0.000 C 
ENDBRANCH   6  19
TORSDOF 4
ENDMDL
MODEL 7
REMARK VINA RESULT:      -5.7      1.916      7.930
REMARK  Name = 
REMARK  4 active torsions:
REMARK  status: ('A' for Active; 'I' for Inactive)
REMARK    1  A    between atoms: O_2  and  C_3
REMARK    2  A    between atoms: C_6  and  C_7
REMARK    3  A    between atoms: C_8  and  C_9
REMARK    4  A    between atoms: C_18  and  O_19
REMARK                            x       y       z     vdW  Elec       q    Type
REMARK                         _______ _______ _______ _____ _____    ______ ____
ROOT
ATOM      1  C   UNL     1      35.081  59.470  56.382  0.00  0.00    +0.000 A 
ATOM      2  C   UNL     1      34.603  58.907  57.560  0.00  0.00    +0.000 A 
ATOM      3  C   UNL     1      35.074  57.658  57.888  0.00  0.00    +0.000 A 
ATOM      4  C   UNL     1      35.975  56.947  57.130  0.00  0.00    +0.000 A 
ATOM      5  C   UNL     1      36.440  57.514  55.967  0.00  0.00    +0.000 A 
ATOM      6  C   UNL     1      35.992  58.766  55.602  0.00  0.00    +0.000 A 
ENDROOT
BRANCH   1   8
ATOM      7  C   UNL     1      33.278  60.972  55.823  0.00  0.00    +0.000 C 
ATOM      8  O   UNL     1      34.665  60.730  55.962  0.00  0.00    +0.000 OA
ENDBRANCH   1   8
BRANCH   4   9
ATOM      9  C   UNL     1      36.420  55.628  57.554  0.00  0.00    +0.000 C 
ATOM     10  C   UNL     1      35.743  54.860  58.359  0.00  0.00    +0.000 C 
BRANCH  10  11
ATOM     11  C   UNL     1      36.206  53.530  58.778  0.00  0.00    +0.000 A 
ATOM     12  C   UNL     1      37.556  53.280  58.735  0.00  0.00    +0.000 A 
ATOM     13  C   UNL     1      38.004  52.039  59.125  0.00  0.00    +0.000 A 
ATOM     14  O   UNL     1      39.375  51.738  59.098  0.00  0.00    +0.000 OA
ATOM     15  C   UNL     1      37.126  51.054  59.554  0.00  0.00    +0.000 A 
ATOM     16  C   UNL     1      35.764  51.298  59.601  0.00  0.00    +0.000 A 
ATOM     17  O   UNL     1      34.913  50.301  60.032  0.00  0.00    +0.000 OA
ATOM     18  C   UNL     1      35.348  52.547  59.205  0.00  0.00    +0.000 A 
ENDBRANCH  10  11
ENDBRANCH   4   9
BRANCH   6  19
ATOM     19  O   UNL     1      36.438  59.374  54.434  0.00  0.00    +0.000 OA
ATOM     20  C   UNL     1      36.083  58.804  53.189  0.00  0.00    +0.000 C 
ENDBRANCH   6  19
TORSDOF 4
ENDMDL
MODEL 8
REMARK VINA RESULT:      -5.5      2.215      4.047
REMARK  Name = 
REMARK  4 active torsions:
REMARK  status: ('A' for Active; 'I' for Inactive)
REMARK    1  A    between atoms: O_2  and  C_3
REMARK    2  A    between atoms: C_6  and  C_7
REMARK    3  A    between atoms: C_8  and  C_9
REMARK    4  A    between atoms: C_18  and  O_19
REMARK                            x       y       z     vdW  Elec       q    Type
REMARK                         _______ _______ _______ _____ _____    ______ ____
ROOT
ATOM      1  C   UNL     1      34.949  50.701  61.260  0.00  0.00    +0.000 A 
ATOM      2  C   UNL     1      34.882  50.531  59.882  0.00  0.00    +0.000 A 
ATOM      3  C   UNL     1      35.095  51.646  59.107  0.00  0.00    +0.000 A 
ATOM      4  C   UNL     1      35.365  52.898  59.610  0.00  0.00    +0.000 A 
ATOM      5  C   UNL     1      35.428  53.053  60.975  0.00  0.00    +0.000 A 
ATOM      6  C   UNL     1      35.220  51.958  61.788  0.00  0.00    +0.000 A 
ENDROOT
BRANCH   1   8
ATOM      7  C   UNL     1      35.680  48.569  62.122  0.00  0.00    +0.000 C 
ATOM      8  O   UNL     1      34.748  49.633  62.131  0.00  0.00    +0.000 OA
ENDBRANCH   1   8
BRANCH   4   9
ATOM      9  C   UNL     1      35.577  54.024  58.715  0.00  0.00    +0.000 C 
ATOM     10  C   UNL     1      35.347  55.264  59.043  0.00  0.00    +0.000 C 
BRANCH  10  11
ATOM     11  C   UNL     1      35.566  56.392  58.127  0.00  0.00    +0.000 A 
ATOM     12  C   UNL     1      36.277  56.152  56.977  0.00  0.00    +0.000 A 
ATOM     13  C   UNL     1      36.490  57.198  56.110  0.00  0.00    +0.000 A 
ATOM     14  O   UNL     1      37.212  57.000  54.922  0.00  0.00    +0.000 OA
ATOM     15  C   UNL     1      36.005  58.470  56.376  0.00  0.00    +0.000 A 
ATOM     16  C   UNL     1      35.287  58.720  57.534  0.00  0.00    +0.000 A 
ATOM     17  O   UNL     1      34.815  59.994  57.775  0.00  0.00    +0.000 OA
ATOM     18  C   UNL     1      35.091  57.655  58.380  0.00  0.00    +0.000 A 
ENDBRANCH  10  11
ENDBRANCH   4   9
BRANCH   6  19
ATOM     19  O   UNL     1      35.276  52.073  63.172  0.00  0.00    +0.000 OA
ATOM     20  C   UNL     1      36.536  52.008  63.812  0.00  0.00    +0.000 C 
ENDBRANCH   6  19
TORSDOF 4
ENDMDL
MODEL 9
REMARK VINA RESULT:      -5.5      1.233      3.058
REMARK  Name = 
REMARK  4 active torsions:
REMARK  status: ('A' for Active; 'I' for Inactive)
REMARK    1  A    between atoms: O_2  and  C_3
REMARK    2  A    between atoms: C_6  and  C_7
REMARK    3  A    between atoms: C_8  and  C_9
REMARK    4  A    between atoms: C_18  and  O_19
REMARK                            x       y       z     vdW  Elec       q    Type
REMARK                         _______ _______ _______ _____ _____    ______ ____
ROOT
ATOM      1  C   UNL     1      36.751  51.931  60.359  0.00  0.00    +0.000 A 
ATOM      2  C   UNL     1      36.290  51.795  59.055  0.00  0.00    +0.000 A 
ATOM      3  C   UNL     1      35.961  52.950  58.387  0.00  0.00    +0.000 A 
ATOM      4  C   UNL     1      36.061  54.211  58.928  0.00  0.00    +0.000 A 
ATOM      5  C   UNL     1      36.518  54.334  60.220  0.00  0.00    +0.000 A 
ATOM      6  C   UNL     1      36.859  53.197  60.924  0.00  0.00    +0.000 A 
ENDROOT
BRANCH   1   8
ATOM      7  C   UNL     1      36.316  49.654  61.027  0.00  0.00    +0.000 C 
ATOM      8  O   UNL     1      37.110  50.821  61.120  0.00  0.00    +0.000 OA
ENDBRANCH   1   8
BRANCH   4   9
ATOM      9  C   UNL     1      35.691  55.382  58.148  0.00  0.00    +0.000 C 
ATOM     10  C   UNL     1      36.447  55.908  57.228  0.00  0.00    +0.000 C 
BRANCH  10  11
ATOM     11  C   UNL     1      36.059  57.091  56.448  0.00  0.00    +0.000 A 
ATOM     12  C   UNL     1      36.569  57.216  55.179  0.00  0.00    +0.000 A 
ATOM     13  C   UNL     1      36.215  58.318  54.437  0.00  0.00    +0.000 A 
ATOM     14  O   UNL     1      36.712  58.488  53.134  0.00  0.00    +0.000 OA
ATOM     15  C   UNL     1      35.363  59.289  54.943  0.00  0.00    +0.000 A 
ATOM     16  C   UNL     1      34.844  59.171  56.222  0.00  0.00    +0.000 A 
ATOM     17  O   UNL     1      33.999  60.151  56.702  0.00  0.00    +0.000 OA
ATOM     18  C   UNL     1      35.217  58.059  56.938  0.00  0.00    +0.000 A 
ENDBRANCH  10  11
ENDBRANCH   4   9
BRANCH   6  19
ATOM     19  O   UNL     1      37.325  53.278  62.231  0.00  0.00    +0.000 OA
ATOM     20  C   UNL     1      38.631  53.771  62.460  0.00  0.00    +0.000 C 
ENDBRANCH   6  19
TORSDOF 4
ENDMDL
MODEL 10
REMARK VINA RESULT:      -5.5      2.060      7.819
REMARK  Name = 
REMARK  4 active torsions:
REMARK  status: ('A' for Active; 'I' for Inactive)
REMARK    1  A    between atoms: O_2  and  C_3
REMARK    2  A    between atoms: C_6  and  C_7
REMARK    3  A    between atoms: C_8  and  C_9
REMARK    4  A    between atoms: C_18  and  O_19
REMARK                            x       y       z     vdW  Elec       q    Type
REMARK                         _______ _______ _______ _____ _____    ______ ____
ROOT
ATOM      1  C   UNL     1      35.219  60.379  56.181  0.00  0.00    +0.000 A 
ATOM      2  C   UNL     1      34.184  59.530  56.556  0.00  0.00    +0.000 A 
ATOM      3  C   UNL     1      34.522  58.229  56.847  0.00  0.00    +0.000 A 
ATOM      4  C   UNL     1      35.803  57.731  56.788  0.00  0.00    +0.000 A 
ATOM      5  C   UNL     1      36.818  58.581  56.415  0.00  0.00    +0.000 A 
ATOM      6  C   UNL     1      36.520  59.894  56.114  0.00  0.00    +0.000 A 
ENDROOT
BRANCH   1   8
ATOM      7  C   UNL     1      34.313  62.013  54.654  0.00  0.00    +0.000 C 
ATOM      8  O   UNL     1      34.980  61.714  55.865  0.00  0.00    +0.000 OA
ENDBRANCH   1   8
BRANCH   4   9
ATOM      9  C   UNL     1      36.071  56.339  57.113  0.00  0.00    +0.000 C 
ATOM     10  C   UNL     1      36.577  55.944  58.247  0.00  0.00    +0.000 C 
BRANCH  10  11
ATOM     11  C   UNL     1      36.841  54.533  58.561  0.00  0.00    +0.000 A 
ATOM     12  C   UNL     1      35.816  53.637  58.387  0.00  0.00    +0.000 A 
ATOM     13  C   UNL     1      36.049  52.312  58.678  0.00  0.00    +0.000 A 
ATOM     14  O   UNL     1      35.031  51.360  58.515  0.00  0.00    +0.000 OA
ATOM     15  C   UNL     1      37.285  51.878  59.135  0.00  0.00    +0.000 A 
ATOM     16  C   UNL     1      38.324  52.776  59.313  0.00  0.00    +0.000 A 
ATOM     17  O   UNL     1      39.543  52.317  59.769  0.00  0.00    +0.000 OA
ATOM     18  C   UNL     1      38.060  54.091  59.015  0.00  0.00    +0.000 A 
ENDBRANCH  10  11
ENDBRANCH   4   9
BRANCH   6  19
ATOM     19  O   UNL     1      37.517  60.785  55.733  0.00  0.00    +0.000 OA
ATOM     20  C   UNL     1      38.698  60.858  56.508  0.00  0.00    +0.000 C 
ENDBRANCH   6  19
TORSDOF 4
ENDMDL
