MODEL 1
REMARK VINA RESULT:      -7.2      0.000      0.000
REMARK  Name = 
REMARK  2 active torsions:
REMARK  status: ('A' for Active; 'I' for Inactive)
REMARK    1  A    between atoms: C_7  and  C_8
REMARK    2  A    between atoms: C_9  and  C_10
REMARK                            x       y       z     vdW  Elec       q    Type
REMARK                         _______ _______ _______ _____ _____    ______ ____
ROOT
ATOM      1  C   UNL     1      29.719  45.519  62.508  0.00  0.00    +0.000 C 
ATOM      2  C   UNL     1      29.730  44.345  62.113  0.00  0.00    +0.000 C 
ENDROOT
BRANCH   1   9
ATOM      3  O   UNL     1      26.996  49.169  61.167  0.00  0.00    +0.000 OA
ATOM      4  C   UNL     1      27.255  48.160  62.120  0.00  0.00    +0.000 A 
ATOM      5  C   UNL     1      26.437  48.049  63.222  0.00  0.00    +0.000 A 
ATOM      6  C   UNL     1      26.692  47.049  64.171  0.00  0.00    +0.000 A 
ATOM      7  O   UNL     1      25.861  46.945  65.280  0.00  0.00    +0.000 OA
ATOM      8  C   UNL     1      27.751  46.228  63.945  0.00  0.00    +0.000 A 
ATOM      9  C   UNL     1      28.585  46.284  62.890  0.00  0.00    +0.000 A 
ATOM     10  C   UNL     1      28.295  47.302  61.963  0.00  0.00    +0.000 A 
ENDBRANCH   1   9
BRANCH   2  11
ATOM     11  C   UNL     1      28.625  43.495  61.950  0.00  0.00    +0.000 A 
ATOM     12  C   UNL     1      28.764  42.252  62.618  0.00  0.00    +0.000 A 
ATOM     13  C   UNL     1      27.767  41.313  62.554  0.00  0.00    +0.000 A 
ATOM     14  C   UNL     1      26.606  41.490  61.871  0.00  0.00    +0.000 A 
ATOM     15  O   UNL     1      25.595  40.544  61.805  0.00  0.00    +0.000 OA
ATOM     16  C   UNL     1      26.455  42.712  61.209  0.00  0.00    +0.000 A 
ATOM     17  O   UNL     1      25.287  42.930  60.502  0.00  0.00    +0.000 OA
ATOM     18  C   UNL     1      27.472  43.644  61.286  0.00  0.00    +0.000 A 
ENDBRANCH   2  11
TORSDOF 2
ENDMDL
MODEL 2
REMARK VINA RESULT:      -6.7     11.960     14.535
REMARK  Name = 
REMARK  2 active torsions:
REMARK  status: ('A' for Active; 'I' for Inactive)
REMARK    1  A    between atoms: C_7  and  C_8
REMARK    2  A    between atoms: C_9  and  C_10
REMARK                            x       y       z     vdW  Elec       q    Type
REMARK                         _______ _______ _______ _____ _____    ______ ____
ROOT
ATOM      1  C   UNL     1      36.455  57.490  59.307  0.00  0.00    +0.000 C 
ATOM      2  C   UNL     1      36.345  56.426  59.930  0.00  0.00    +0.000 C 
ENDROOT
BRANCH   1   9
ATOM      3  O   UNL     1      32.694  59.513  57.234  0.00  0.00    +0.000 OA
ATOM      4  C   UNL     1      33.933  58.857  57.076  0.00  0.00    +0.000 A 
ATOM      5  C   UNL     1      34.413  58.618  55.807  0.00  0.00    +0.000 A 
ATOM      6  C   UNL     1      35.645  57.966  55.647  0.00  0.00    +0.000 A 
ATOM      7  O   UNL     1      36.120  57.730  54.363  0.00  0.00    +0.000 OA
ATOM      8  C   UNL     1      36.308  57.600  56.775  0.00  0.00    +0.000 A 
ATOM      9  C   UNL     1      35.894  57.804  58.040  0.00  0.00    +0.000 A 
ATOM     10  C   UNL     1      34.655  58.460  58.155  0.00  0.00    +0.000 A 
ENDBRANCH   1   9
BRANCH   2  11
ATOM     11  C   UNL     1      35.640  55.279  59.531  0.00  0.00    +0.000 A 
ATOM     12  C   UNL     1      34.303  55.245  60.003  0.00  0.00    +0.000 A 
ATOM     13  C   UNL     1      33.484  54.187  59.697  0.00  0.00    +0.000 A 
ATOM     14  C   UNL     1      33.873  53.127  58.942  0.00  0.00    +0.000 A 
ATOM     15  O   UNL     1      33.049  52.056  58.630  0.00  0.00    +0.000 OA
ATOM     16  C   UNL     1      35.188  53.149  58.469  0.00  0.00    +0.000 A 
ATOM     17  O   UNL     1      35.621  52.086  57.698  0.00  0.00    +0.000 OA
ATOM     18  C   UNL     1      35.996  54.223  58.790  0.00  0.00    +0.000 A 
ENDBRANCH   2  11
TORSDOF 2
ENDMDL
MODEL 3
REMARK VINA RESULT:      -6.6      1.125      2.351
REMARK  Name = 
REMARK  2 active torsions:
REMARK  status: ('A' for Active; 'I' for Inactive)
REMARK    1  A    between atoms: C_7  and  C_8
REMARK    2  A    between atoms: C_9  and  C_10
REMARK                            x       y       z     vdW  Elec       q    Type
REMARK                         _______ _______ _______ _____ _____    ______ ____
ROOT
ATOM      1  C   UNL     1      29.997  45.586  63.079  0.00  0.00    +0.000 C 
ATOM      2  C   UNL     1      30.134  44.458  62.586  0.00  0.00    +0.000 C 
ENDROOT
BRANCH   1   9
ATOM      3  O   UNL     1      25.945  46.820  65.221  0.00  0.00    +0.000 OA
ATOM      4  C   UNL     1      26.821  47.003  64.130  0.00  0.00    +0.000 A 
ATOM      5  C   UNL     1      26.501  47.922  63.155  0.00  0.00    +0.000 A 
ATOM      6  C   UNL     1      27.370  48.106  62.070  0.00  0.00    +0.000 A 
ATOM      7  O   UNL     1      27.037  49.034  61.091  0.00  0.00    +0.000 OA
ATOM      8  C   UNL     1      28.501  47.354  62.041  0.00  0.00    +0.000 A 
ATOM      9  C   UNL     1      28.870  46.442  62.960  0.00  0.00    +0.000 A 
ATOM     10  C   UNL     1      27.970  46.289  64.031  0.00  0.00    +0.000 A 
ENDBRANCH   1   9
BRANCH   2  11
ATOM     11  C   UNL     1      29.208  43.761  61.794  0.00  0.00    +0.000 A 
ATOM     12  C   UNL     1      29.812  42.886  60.856  0.00  0.00    +0.000 A 
ATOM     13  C   UNL     1      29.039  42.133  60.009  0.00  0.00    +0.000 A 
ATOM     14  C   UNL     1      27.681  42.163  60.001  0.00  0.00    +0.000 A 
ATOM     15  O   UNL     1      26.896  41.404  59.147  0.00  0.00    +0.000 OA
ATOM     16  C   UNL     1      27.073  43.022  60.921  0.00  0.00    +0.000 A 
ATOM     17  O   UNL     1      25.692  43.080  60.943  0.00  0.00    +0.000 OA
ATOM     18  C   UNL     1      27.870  43.771  61.765  0.00  0.00    +0.000 A 
ENDBRANCH   2  11
TORSDOF 2
ENDMDL
MODEL 4
REMARK VINA RESULT:      -6.6     12.100     14.637
REMARK  Name = 
REMARK  2 active torsions:
REMARK  status: ('A' for Active; 'I' for Inactive)
REMARK    1  A    between atoms: C_7  and  C_8
REMARK    2  A    between atoms: C_9  and  C_10
REMARK                            x       y       z     vdW  Elec       q    Type
REMARK                         _______ _______ _______ _____ _____    ______ ____
ROOT
ATOM      1  C   UNL     1      36.403  57.582  59.331  0.00  0.00    +0.000 C 
ATOM      2  C   UNL     1      36.292  56.522  59.960  0.00  0.00    +0.000 C 
ENDROOT
BRANCH   1   9
ATOM      3  O   UNL     1      37.235  57.130  54.679  0.00  0.00    +0.000 OA
ATOM      4  C   UNL     1      36.379  57.601  55.697  0.00  0.00    +0.000 A 
ATOM      5  C   UNL     1      35.211  58.244  55.353  0.00  0.00    +0.000 A 
ATOM      6  C   UNL     1      34.359  58.714  56.362  0.00  0.00    +0.000 A 
ATOM      7  O   UNL     1      33.184  59.362  56.004  0.00  0.00    +0.000 OA
ATOM      8  C   UNL     1      34.739  58.502  57.649  0.00  0.00    +0.000 A 
ATOM      9  C   UNL     1      35.864  57.881  58.051  0.00  0.00    +0.000 A 
ATOM     10  C   UNL     1      36.691  57.427  57.007  0.00  0.00    +0.000 A 
ENDBRANCH   1   9
BRANCH   2  11
ATOM     11  C   UNL     1      35.607  55.365  59.557  0.00  0.00    +0.000 A 
ATOM     12  C   UNL     1      34.255  55.332  59.982  0.00  0.00    +0.000 A 
ATOM     13  C   UNL     1      33.452  54.265  59.666  0.00  0.00    +0.000 A 
ATOM     14  C   UNL     1      33.871  53.193  58.945  0.00  0.00    +0.000 A 
ATOM     15  O   UNL     1      33.064  52.113  58.622  0.00  0.00    +0.000 OA
ATOM     16  C   UNL     1      35.202  53.214  58.518  0.00  0.00    +0.000 A 
ATOM     17  O   UNL     1      35.666  52.140  57.781  0.00  0.00    +0.000 OA
ATOM     18  C   UNL     1      35.994  54.297  58.847  0.00  0.00    +0.000 A 
ENDBRANCH   2  11
TORSDOF 2
ENDMDL
MODEL 5
REMARK VINA RESULT:      -6.5     12.985     15.408
REMARK  Name = 
REMARK  2 active torsions:
REMARK  status: ('A' for Active; 'I' for Inactive)
REMARK    1  A    between atoms: C_7  and  C_8
REMARK    2  A    between atoms: C_9  and  C_10
REMARK                            x       y       z     vdW  Elec       q    Type
REMARK                         _______ _______ _______ _____ _____    ______ ____
ROOT
ATOM      1  C   UNL     1      34.595  57.736  58.696  0.00  0.00    +0.000 C 
ATOM      2  C   UNL     1      34.839  56.803  59.473  0.00  0.00    +0.000 C 
ENDROOT
BRANCH   1   9
ATOM      3  O   UNL     1      33.471  59.737  54.541  0.00  0.00    +0.000 OA
ATOM      4  C   UNL     1      34.368  58.929  55.272  0.00  0.00    +0.000 A 
ATOM      5  C   UNL     1      35.471  58.403  54.638  0.00  0.00    +0.000 A 
ATOM      6  C   UNL     1      36.365  57.600  55.361  0.00  0.00    +0.000 A 
ATOM      7  O   UNL     1      37.475  57.074  54.712  0.00  0.00    +0.000 OA
ATOM      8  C   UNL     1      36.086  57.382  56.673  0.00  0.00    +0.000 A 
ATOM      9  C   UNL     1      35.028  57.866  57.349  0.00  0.00    +0.000 A 
ATOM     10  C   UNL     1      34.157  58.665  56.586  0.00  0.00    +0.000 A 
ENDBRANCH   1   9
BRANCH   2  11
ATOM     11  C   UNL     1      35.600  55.654  59.205  0.00  0.00    +0.000 A 
ATOM     12  C   UNL     1      36.958  55.772  59.595  0.00  0.00    +0.000 A 
ATOM     13  C   UNL     1      37.831  54.732  59.399  0.00  0.00    +0.000 A 
ATOM     14  C   UNL     1      37.477  53.547  58.837  0.00  0.00    +0.000 A 
ATOM     15  O   UNL     1      38.355  52.493  58.638  0.00  0.00    +0.000 OA
ATOM     16  C   UNL     1      36.140  53.417  58.450  0.00  0.00    +0.000 A 
ATOM     17  O   UNL     1      35.743  52.225  57.874  0.00  0.00    +0.000 OA
ATOM     18  C   UNL     1      35.278  54.477  58.656  0.00  0.00    +0.000 A 
ENDBRANCH   2  11
TORSDOF 2
ENDMDL
MODEL 6
REMARK VINA RESULT:      -6.4     12.176     15.374
REMARK  Name = 
REMARK  2 active torsions:
REMARK  status: ('A' for Active; 'I' for Inactive)
REMARK    1  A    between atoms: C_7  and  C_8
REMARK    2  A    between atoms: C_9  and  C_10
REMARK                            x       y       z     vdW  Elec       q    Type
REMARK                         _______ _______ _______ _____ _____    ______ ____
ROOT
ATOM      1  C   UNL     1      35.012  56.655  59.967  0.00  0.00    +0.000 C 
ATOM      2  C   UNL     1      35.037  57.690  59.288  0.00  0.00    +0.000 C 
ENDROOT
BRANCH   1   9
ATOM      3  O   UNL     1      32.662  52.716  58.744  0.00  0.00    +0.000 OA
ATOM      4  C   UNL     1      33.907  53.361  58.904  0.00  0.00    +0.000 A 
ATOM      5  C   UNL     1      35.064  52.672  58.617  0.00  0.00    +0.000 A 
ATOM      6  C   UNL     1      36.303  53.310  58.775  0.00  0.00    +0.000 A 
ATOM      7  O   UNL     1      37.465  52.607  58.483  0.00  0.00    +0.000 OA
ATOM      8  C   UNL     1      36.291  54.597  59.211  0.00  0.00    +0.000 A 
ATOM      9  C   UNL     1      35.197  55.323  59.507  0.00  0.00    +0.000 A 
ATOM     10  C   UNL     1      33.977  54.645  59.335  0.00  0.00    +0.000 A 
ENDBRANCH   1   9
BRANCH   2  11
ATOM     11  C   UNL     1      35.255  57.792  57.905  0.00  0.00    +0.000 A 
ATOM     12  C   UNL     1      34.257  58.538  57.229  0.00  0.00    +0.000 A 
ATOM     13  C   UNL     1      34.329  58.727  55.872  0.00  0.00    +0.000 A 
ATOM     14  C   UNL     1      35.327  58.234  55.094  0.00  0.00    +0.000 A 
ATOM     15  O   UNL     1      35.405  58.423  53.723  0.00  0.00    +0.000 OA
ATOM     16  C   UNL     1      36.319  57.497  55.749  0.00  0.00    +0.000 A 
ATOM     17  O   UNL     1      37.352  56.978  54.990  0.00  0.00    +0.000 OA
ATOM     18  C   UNL     1      36.227  57.318  57.115  0.00  0.00    +0.000 A 
ENDBRANCH   2  11
TORSDOF 2
ENDMDL
MODEL 7
REMARK VINA RESULT:      -6.3     11.987     15.195
REMARK  Name = 
REMARK  2 active torsions:
REMARK  status: ('A' for Active; 'I' for Inactive)
REMARK    1  A    between atoms: C_7  and  C_8
REMARK    2  A    between atoms: C_9  and  C_10
REMARK                            x       y       z     vdW  Elec       q    Type
REMARK                         _______ _______ _______ _____ _____    ______ ____
ROOT
ATOM      1  C   UNL     1      35.575  56.396  60.376  0.00  0.00    +0.000 C 
ATOM      2  C   UNL     1      35.673  57.490  59.804  0.00  0.00    +0.000 C 
ENDROOT
BRANCH   1   9
ATOM      3  O   UNL     1      37.429  52.445  58.509  0.00  0.00    +0.000 OA
ATOM      4  C   UNL     1      36.269  53.171  58.854  0.00  0.00    +0.000 A 
ATOM      5  C   UNL     1      35.030  52.624  58.600  0.00  0.00    +0.000 A 
ATOM      6  C   UNL     1      33.876  53.342  58.941  0.00  0.00    +0.000 A 
ATOM      7  O   UNL     1      32.632  52.782  58.680  0.00  0.00    +0.000 OA
ATOM      8  C   UNL     1      34.047  54.562  59.516  0.00  0.00    +0.000 A 
ATOM      9  C   UNL     1      35.226  55.150  59.791  0.00  0.00    +0.000 A 
ATOM     10  C   UNL     1      36.357  54.396  59.431  0.00  0.00    +0.000 A 
ENDBRANCH   1   9
BRANCH   2  11
ATOM     11  C   UNL     1      35.462  57.756  58.442  0.00  0.00    +0.000 A 
ATOM     12  C   UNL     1      34.280  58.497  58.188  0.00  0.00    +0.000 A 
ATOM     13  C   UNL     1      33.934  58.836  56.904  0.00  0.00    +0.000 A 
ATOM     14  C   UNL     1      34.670  58.503  55.812  0.00  0.00    +0.000 A 
ATOM     15  O   UNL     1      34.326  58.844  54.513  0.00  0.00    +0.000 OA
ATOM     16  C   UNL     1      35.839  57.773  56.049  0.00  0.00    +0.000 A 
ATOM     17  O   UNL     1      36.614  57.415  54.962  0.00  0.00    +0.000 OA
ATOM     18  C   UNL     1      36.168  57.441  57.349  0.00  0.00    +0.000 A 
ENDBRANCH   2  11
TORSDOF 2
ENDMDL
MODEL 8
REMARK VINA RESULT:      -6.2     11.228     13.410
REMARK  Name = 
REMARK  2 active torsions:
REMARK  status: ('A' for Active; 'I' for Inactive)
REMARK    1  A    between atoms: C_7  and  C_8
REMARK    2  A    between atoms: C_9  and  C_10
REMARK                            x       y       z     vdW  Elec       q    Type
REMARK                         _______ _______ _______ _____ _____    ______ ____
ROOT
ATOM      1  C   UNL     1      36.677  54.705  58.651  0.00  0.00    +0.000 C 
ATOM      2  C   UNL     1      35.620  54.100  58.871  0.00  0.00    +0.000 C 
ENDROOT
BRANCH   1   9
ATOM      3  O   UNL     1      40.743  52.334  58.032  0.00  0.00    +0.000 OA
ATOM      4  C   UNL     1      39.983  53.210  58.837  0.00  0.00    +0.000 A 
ATOM      5  C   UNL     1      40.524  53.685  60.011  0.00  0.00    +0.000 A 
ATOM      6  C   UNL     1      39.772  54.556  60.814  0.00  0.00    +0.000 A 
ATOM      7  O   UNL     1      40.325  55.029  61.997  0.00  0.00    +0.000 OA
ATOM      8  C   UNL     1      38.529  54.888  60.378  0.00  0.00    +0.000 A 
ATOM      9  C   UNL     1      37.945  54.460  59.243  0.00  0.00    +0.000 A 
ATOM     10  C   UNL     1      38.733  53.589  58.469  0.00  0.00    +0.000 A 
ENDBRANCH   1   9
BRANCH   2  11
ATOM     11  C   UNL     1      35.425  53.028  59.757  0.00  0.00    +0.000 A 
ATOM     12  C   UNL     1      35.318  51.771  59.108  0.00  0.00    +0.000 A 
ATOM     13  C   UNL     1      35.125  50.626  59.839  0.00  0.00    +0.000 A 
ATOM     14  C   UNL     1      35.028  50.603  61.193  0.00  0.00    +0.000 A 
ATOM     15  O   UNL     1      34.834  49.449  61.936  0.00  0.00    +0.000 OA
ATOM     16  C   UNL     1      35.133  51.836  61.845  0.00  0.00    +0.000 A 
ATOM     17  O   UNL     1      35.038  51.853  63.224  0.00  0.00    +0.000 OA
ATOM     18  C   UNL     1      35.326  52.977  61.091  0.00  0.00    +0.000 A 
ENDBRANCH   2  11
TORSDOF 2
ENDMDL
MODEL 9
REMARK VINA RESULT:      -6.2     11.240     13.484
REMARK  Name = 
REMARK  2 active torsions:
REMARK  status: ('A' for Active; 'I' for Inactive)
REMARK    1  A    between atoms: C_7  and  C_8
REMARK    2  A    between atoms: C_9  and  C_10
REMARK                            x       y       z     vdW  Elec       q    Type
REMARK                         _______ _______ _______ _____ _____    ______ ____
ROOT
ATOM      1  C   UNL     1      36.789  54.577  58.432  0.00  0.00    +0.000 C 
ATOM      2  C   UNL     1      35.694  54.102  58.764  0.00  0.00    +0.000 C 
ENDROOT
BRANCH   1   9
ATOM      3  O   UNL     1      40.026  55.292  61.830  0.00  0.00    +0.000 OA
ATOM      4  C   UNL     1      39.663  54.600  60.654  0.00  0.00    +0.000 A 
ATOM      5  C   UNL     1      40.534  53.677  60.119  0.00  0.00    +0.000 A 
ATOM      6  C   UNL     1      40.177  52.989  58.951  0.00  0.00    +0.000 A 
ATOM      7  O   UNL     1      41.063  52.060  58.419  0.00  0.00    +0.000 OA
ATOM      8  C   UNL     1      38.968  53.276  58.402  0.00  0.00    +0.000 A 
ATOM      9  C   UNL     1      38.073  54.164  58.876  0.00  0.00    +0.000 A 
ATOM     10  C   UNL     1      38.472  54.832  60.047  0.00  0.00    +0.000 A 
ENDBRANCH   1   9
BRANCH   2  11
ATOM     11  C   UNL     1      35.467  53.041  59.656  0.00  0.00    +0.000 A 
ATOM     12  C   UNL     1      35.319  51.785  59.014  0.00  0.00    +0.000 A 
ATOM     13  C   UNL     1      35.091  50.651  59.751  0.00  0.00    +0.000 A 
ATOM     14  C   UNL     1      34.993  50.638  61.106  0.00  0.00    +0.000 A 
ATOM     15  O   UNL     1      34.763  49.495  61.855  0.00  0.00    +0.000 OA
ATOM     16  C   UNL     1      35.137  51.870  61.751  0.00  0.00    +0.000 A 
ATOM     17  O   UNL     1      35.043  51.898  63.130  0.00  0.00    +0.000 OA
ATOM     18  C   UNL     1      35.366  53.001  60.990  0.00  0.00    +0.000 A 
ENDBRANCH   2  11
TORSDOF 2
ENDMDL
MODEL 10
REMARK VINA RESULT:      -6.2      3.125      6.345
REMARK  Name = 
REMARK  2 active torsions:
REMARK  status: ('A' for Active; 'I' for Inactive)
REMARK    1  A    between atoms: C_7  and  C_8
REMARK    2  A    between atoms: C_9  and  C_10
REMARK                            x       y       z     vdW  Elec       q    Type
REMARK                         _______ _______ _______ _____ _____    ______ ____
ROOT
ATOM      1  C   UNL     1      28.905  42.562  61.973  0.00  0.00    +0.000 C 
ATOM      2  C   UNL     1      28.475  43.486  62.676  0.00  0.00    +0.000 C 
ENDROOT
BRANCH   1   9
ATOM      3  O   UNL     1      28.868  41.678  57.309  0.00  0.00    +0.000 OA
ATOM      4  C   UNL     1      29.574  42.183  58.422  0.00  0.00    +0.000 A 
ATOM      5  C   UNL     1      30.843  42.687  58.243  0.00  0.00    +0.000 A 
ATOM      6  C   UNL     1      31.547  43.190  59.346  0.00  0.00    +0.000 A 
ATOM      7  O   UNL     1      32.827  43.696  59.155  0.00  0.00    +0.000 OA
ATOM      8  C   UNL     1      30.925  43.152  60.553  0.00  0.00    +0.000 A 
ATOM      9  C   UNL     1      29.690  42.675  60.794  0.00  0.00    +0.000 A 
ATOM     10  C   UNL     1      29.020  42.179  59.660  0.00  0.00    +0.000 A 
ENDBRANCH   1   9
BRANCH   2  11
ATOM     11  C   UNL     1      28.661  44.862  62.473  0.00  0.00    +0.000 A 
ATOM     12  C   UNL     1      27.456  45.564  62.214  0.00  0.00    +0.000 A 
ATOM     13  C   UNL     1      27.473  46.918  61.995  0.00  0.00    +0.000 A 
ATOM     14  C   UNL     1      28.604  47.670  62.009  0.00  0.00    +0.000 A 
ATOM     15  O   UNL     1      28.626  49.038  61.788  0.00  0.00    +0.000 OA
ATOM     16  C   UNL     1      29.799  46.991  62.263  0.00  0.00    +0.000 A 
ATOM     17  O   UNL     1      30.972  47.723  62.285  0.00  0.00    +0.000 OA
ATOM     18  C   UNL     1      29.760  45.627  62.481  0.00  0.00    +0.000 A 
ENDBRANCH   2  11
TORSDOF 2
ENDMDL
