REMARK  Name = 
REMARK  5 active torsions:
REMARK  status: ('A' for Active; 'I' for Inactive)
REMARK    1  A    between atoms: O_2  and  C_3
REMARK    2  A    between atoms: C_5  and  C_6
REMARK    3  A    between atoms: C_7  and  C_8
REMARK    4  A    between atoms: C_13  and  O_14
REMARK    5  A    between atoms: C_18  and  O_19
REMARK                            x       y       z     vdW  Elec       q    Type
REMARK                         _______ _______ _______ _____ _____    ______ ____
ROOT
ATOM      1  C   UNL     1      -0.336   1.800   1.289  0.00  0.00    +0.000 C 
ATOM      2  C   UNL     1       0.903   1.628   1.205  0.00  0.00    +0.000 C 
ENDROOT
BRANCH   2   3
ATOM      3  C   UNL     1       1.573   0.586   0.498  0.00  0.00    +0.000 A 
ATOM      4  C   UNL     1       1.117  -0.453  -0.242  0.00  0.00    +0.000 A 
ATOM      5  C   UNL     1       1.889  -1.397  -0.879  0.00  0.00    +0.000 A 
ATOM      6  C   UNL     1       3.268  -1.333  -0.793  0.00  0.00    +0.000 A 
ATOM      7  O   UNL     1       4.096  -2.254  -1.413  0.00  0.00    +0.000 OA
ATOM      8  C   UNL     1       3.773  -0.289  -0.049  0.00  0.00    +0.000 A 
ATOM      9  C   UNL     1       2.983   0.640   0.577  0.00  0.00    +0.000 A 
BRANCH   8  10
ATOM     10  O   UNL     1       5.162  -0.229   0.034  0.00  0.00    +0.000 OA
ATOM     11  C   UNL     1       5.738   0.820   0.784  0.00  0.00    +0.000 C 
ENDBRANCH   8  10
ENDBRANCH   2   3
BRANCH   1  14
ATOM     12  C   UNL     1      -2.264  -0.829  -0.605  0.00  0.00    +0.000 A 
ATOM     13  C   UNL     1      -1.225  -0.105  -0.069  0.00  0.00    +0.000 A 
ATOM     14  C   UNL     1      -1.339   0.996   0.698  0.00  0.00    +0.000 A 
ATOM     15  C   UNL     1      -2.670   1.387   0.932  0.00  0.00    +0.000 A 
ATOM     16  C   UNL     1      -3.733   0.695   0.416  0.00  0.00    +0.000 A 
ATOM     17  C   UNL     1      -3.542  -0.421  -0.358  0.00  0.00    +0.000 A 
BRANCH  12  19
ATOM     18  C   UNL     1      -3.077  -2.694  -1.932  0.00  0.00    +0.000 C 
ATOM     19  O   UNL     1      -2.006  -1.948  -1.379  0.00  0.00    +0.000 OA
ENDBRANCH  12  19
BRANCH  16  20
ATOM     20  O   UNL     1      -5.050   1.125   0.678  0.00  0.00    +0.000 OA
ATOM     21  C   UNL     1      -5.261   2.275   1.475  0.00  0.00    +0.000 C 
ENDBRANCH  16  20
ENDBRANCH   1  14
TORSDOF 5
