MODEL 1
REMARK VINA RESULT:      -6.2      0.000      0.000
REMARK  Name = 
REMARK  8 active torsions:
REMARK  status: ('A' for Active; 'I' for Inactive)
REMARK    1  A    between atoms: C_2  and  C_3
REMARK    2  A    between atoms: C_3  and  O_4
REMARK    3  A    between atoms: O_4  and  C_5
REMARK    4  A    between atoms: C_8  and  C_9
REMARK    5  A    between atoms: C_10  and  C_11
REMARK    6  A    between atoms: C_13  and  O_14
REMARK    7  A    between atoms: C_16  and  O_17
REMARK    8  A    between atoms: C_19  and  O_20
REMARK                            x       y       z     vdW  Elec       q    Type
REMARK                         _______ _______ _______ _____ _____    ______ ____
ROOT
ATOM      1  C   UNL     1      36.522  56.364  56.941  0.00  0.00    +0.000 C 
ATOM      2  C   UNL     1      35.989  55.661  57.900  0.00  0.00    +0.000 C 
ENDROOT
BRANCH   1   6
ATOM      3  C   UNL     1      34.306  59.547  55.199  0.00  0.00    +0.000 A 
ATOM      4  C   UNL     1      34.115  59.170  56.491  0.00  0.00    +0.000 A 
ATOM      5  C   UNL     1      34.815  58.147  57.080  0.00  0.00    +0.000 A 
ATOM      6  C   UNL     1      35.756  57.461  56.344  0.00  0.00    +0.000 A 
ATOM      7  C   UNL     1      35.962  57.827  55.033  0.00  0.00    +0.000 A 
ATOM      8  C   UNL     1      35.243  58.867  54.453  0.00  0.00    +0.000 A 
BRANCH   3   9
ATOM      9  O   UNL     1      33.575  60.594  54.628  0.00  0.00    +0.000 OA
BRANCH   9  10
ATOM     10  C   UNL     1      32.526  61.207  55.343  0.00  0.00    +0.000 C 
BRANCH  10  12
ATOM     11  C   UNL     1      30.366  60.154  56.068  0.00  0.00    +0.000 C 
ATOM     12  C   UNL     1      31.239  60.558  54.917  0.00  0.00    +0.000 C 
ENDBRANCH  10  12
ENDBRANCH   9  10
ENDBRANCH   3   9
ENDBRANCH   1   6
BRANCH   2  13
ATOM     13  C   UNL     1      36.619  54.551  58.585  0.00  0.00    +0.000 A 
ATOM     14  C   UNL     1      35.961  53.322  58.510  0.00  0.00    +0.000 A 
ATOM     15  C   UNL     1      36.504  52.246  59.133  0.00  0.00    +0.000 A 
ATOM     16  C   UNL     1      37.687  52.367  59.827  0.00  0.00    +0.000 A 
ATOM     17  C   UNL     1      38.365  53.568  59.922  0.00  0.00    +0.000 A 
ATOM     18  C   UNL     1      37.804  54.655  59.285  0.00  0.00    +0.000 A 
BRANCH  15  19
ATOM     19  O   UNL     1      35.852  50.998  59.066  0.00  0.00    +0.000 OA
ATOM     20  C   UNL     1      34.624  50.782  59.716  0.00  0.00    +0.000 C 
ENDBRANCH  15  19
BRANCH  16  21
ATOM     21  O   UNL     1      38.176  51.206  60.440  0.00  0.00    +0.000 OA
ATOM     22  C   UNL     1      39.040  50.306  59.773  0.00  0.00    +0.000 C 
ENDBRANCH  16  21
BRANCH  17  23
ATOM     23  O   UNL     1      39.540  53.606  60.634  0.00  0.00    +0.000 OA
ATOM     24  C   UNL     1      40.818  53.602  60.059  0.00  0.00    +0.000 C 
ENDBRANCH  17  23
ENDBRANCH   2  13
TORSDOF 8
ENDMDL
MODEL 2
REMARK VINA RESULT:      -6.1      0.710      2.786
REMARK  Name = 
REMARK  8 active torsions:
REMARK  status: ('A' for Active; 'I' for Inactive)
REMARK    1  A    between atoms: C_2  and  C_3
REMARK    2  A    between atoms: C_3  and  O_4
REMARK    3  A    between atoms: O_4  and  C_5
REMARK    4  A    between atoms: C_8  and  C_9
REMARK    5  A    between atoms: C_10  and  C_11
REMARK    6  A    between atoms: C_13  and  O_14
REMARK    7  A    between atoms: C_16  and  O_17
REMARK    8  A    between atoms: C_19  and  O_20
REMARK                            x       y       z     vdW  Elec       q    Type
REMARK                         _______ _______ _______ _____ _____    ______ ____
ROOT
ATOM      1  C   UNL     1      36.469  56.446  57.840  0.00  0.00    +0.000 C 
ATOM      2  C   UNL     1      36.139  55.186  57.834  0.00  0.00    +0.000 C 
ENDROOT
BRANCH   1   6
ATOM      3  C   UNL     1      34.249  59.193  55.472  0.00  0.00    +0.000 A 
ATOM      4  C   UNL     1      35.306  58.507  54.963  0.00  0.00    +0.000 A 
ATOM      5  C   UNL     1      36.042  57.614  55.703  0.00  0.00    +0.000 A 
ATOM      6  C   UNL     1      35.706  57.392  57.021  0.00  0.00    +0.000 A 
ATOM      7  C   UNL     1      34.639  58.078  57.553  0.00  0.00    +0.000 A 
ATOM      8  C   UNL     1      33.905  58.979  56.788  0.00  0.00    +0.000 A 
BRANCH   3   9
ATOM      9  O   UNL     1      33.520  60.096  54.691  0.00  0.00    +0.000 OA
BRANCH   9  10
ATOM     10  C   UNL     1      32.548  60.930  55.281  0.00  0.00    +0.000 C 
BRANCH  10  12
ATOM     11  C   UNL     1      30.278  60.236  56.095  0.00  0.00    +0.000 C 
ATOM     12  C   UNL     1      31.195  60.387  54.918  0.00  0.00    +0.000 C 
ENDBRANCH  10  12
ENDBRANCH   9  10
ENDBRANCH   3   9
ENDBRANCH   1   6
BRANCH   2  13
ATOM     13  C   UNL     1      36.796  54.137  58.587  0.00  0.00    +0.000 A 
ATOM     14  C   UNL     1      38.064  54.436  59.089  0.00  0.00    +0.000 A 
ATOM     15  C   UNL     1      38.728  53.492  59.803  0.00  0.00    +0.000 A 
ATOM     16  C   UNL     1      38.156  52.259  60.027  0.00  0.00    +0.000 A 
ATOM     17  C   UNL     1      36.903  51.930  59.545  0.00  0.00    +0.000 A 
ATOM     18  C   UNL     1      36.238  52.897  58.821  0.00  0.00    +0.000 A 
BRANCH  15  19
ATOM     19  O   UNL     1      40.008  53.777  60.317  0.00  0.00    +0.000 OA
ATOM     20  C   UNL     1      40.170  54.546  61.484  0.00  0.00    +0.000 C 
ENDBRANCH  15  19
BRANCH  16  21
ATOM     21  O   UNL     1      38.912  51.345  60.774  0.00  0.00    +0.000 OA
ATOM     22  C   UNL     1      39.749  50.381  60.165  0.00  0.00    +0.000 C 
ENDBRANCH  16  21
BRANCH  17  23
ATOM     23  O   UNL     1      36.404  50.678  59.812  0.00  0.00    +0.000 OA
ATOM     24  C   UNL     1      35.214  50.429  60.510  0.00  0.00    +0.000 C 
ENDBRANCH  17  23
ENDBRANCH   2  13
TORSDOF 8
ENDMDL
MODEL 3
REMARK VINA RESULT:      -5.9      1.786      9.245
REMARK  Name = 
REMARK  8 active torsions:
REMARK  status: ('A' for Active; 'I' for Inactive)
REMARK    1  A    between atoms: C_2  and  C_3
REMARK    2  A    between atoms: C_3  and  O_4
REMARK    3  A    between atoms: O_4  and  C_5
REMARK    4  A    between atoms: C_8  and  C_9
REMARK    5  A    between atoms: C_10  and  C_11
REMARK    6  A    between atoms: C_13  and  O_14
REMARK    7  A    between atoms: C_16  and  O_17
REMARK    8  A    between atoms: C_19  and  O_20
REMARK                            x       y       z     vdW  Elec       q    Type
REMARK                         _______ _______ _______ _____ _____    ______ ____
ROOT
ATOM      1  C   UNL     1      36.186  55.257  58.350  0.00  0.00    +0.000 C 
ATOM      2  C   UNL     1      36.623  56.166  57.526  0.00  0.00    +0.000 C 
ENDROOT
BRANCH   1   6
ATOM      3  C   UNL     1      38.941  52.519  60.080  0.00  0.00    +0.000 A 
ATOM      4  C   UNL     1      37.968  52.106  59.226  0.00  0.00    +0.000 A 
ATOM      5  C   UNL     1      37.065  52.966  58.653  0.00  0.00    +0.000 A 
ATOM      6  C   UNL     1      37.134  54.311  58.944  0.00  0.00    +0.000 A 
ATOM      7  C   UNL     1      38.113  54.748  59.808  0.00  0.00    +0.000 A 
ATOM      8  C   UNL     1      39.020  53.861  60.380  0.00  0.00    +0.000 A 
BRANCH   3   9
ATOM      9  O   UNL     1      39.847  51.616  60.648  0.00  0.00    +0.000 OA
BRANCH   9  10
ATOM     10  C   UNL     1      40.716  50.865  59.830  0.00  0.00    +0.000 C 
BRANCH  10  12
ATOM     11  C   UNL     1      42.020  52.181  58.137  0.00  0.00    +0.000 C 
ATOM     12  C   UNL     1      41.931  51.707  59.557  0.00  0.00    +0.000 C 
ENDBRANCH  10  12
ENDBRANCH   9  10
ENDBRANCH   3   9
ENDBRANCH   1   6
BRANCH   2  13
ATOM     13  C   UNL     1      35.812  57.165  56.862  0.00  0.00    +0.000 A 
ATOM     14  C   UNL     1      36.107  57.412  55.520  0.00  0.00    +0.000 A 
ATOM     15  C   UNL     1      35.380  58.338  54.846  0.00  0.00    +0.000 A 
ATOM     16  C   UNL     1      34.367  59.023  55.479  0.00  0.00    +0.000 A 
ATOM     17  C   UNL     1      34.047  58.804  56.806  0.00  0.00    +0.000 A 
ATOM     18  C   UNL     1      34.793  57.861  57.481  0.00  0.00    +0.000 A 
BRANCH  15  19
ATOM     19  O   UNL     1      35.665  58.599  53.491  0.00  0.00    +0.000 OA
ATOM     20  C   UNL     1      36.906  59.131  53.096  0.00  0.00    +0.000 C 
ENDBRANCH  15  19
BRANCH  16  21
ATOM     21  O   UNL     1      33.668  59.961  54.708  0.00  0.00    +0.000 OA
ATOM     22  C   UNL     1      33.975  61.342  54.737  0.00  0.00    +0.000 C 
ENDBRANCH  16  21
BRANCH  17  23
ATOM     23  O   UNL     1      33.022  59.529  57.364  0.00  0.00    +0.000 OA
ATOM     24  C   UNL     1      32.990  59.964  58.696  0.00  0.00    +0.000 C 
ENDBRANCH  17  23
ENDBRANCH   2  13
TORSDOF 8
ENDMDL
MODEL 4
REMARK VINA RESULT:      -5.8      1.296      1.591
REMARK  Name = 
REMARK  8 active torsions:
REMARK  status: ('A' for Active; 'I' for Inactive)
REMARK    1  A    between atoms: C_2  and  C_3
REMARK    2  A    between atoms: C_3  and  O_4
REMARK    3  A    between atoms: O_4  and  C_5
REMARK    4  A    between atoms: C_8  and  C_9
REMARK    5  A    between atoms: C_10  and  C_11
REMARK    6  A    between atoms: C_13  and  O_14
REMARK    7  A    between atoms: C_16  and  O_17
REMARK    8  A    between atoms: C_19  and  O_20
REMARK                            x       y       z     vdW  Elec       q    Type
REMARK                         _______ _______ _______ _____ _____    ______ ____
ROOT
ATOM      1  C   UNL     1      36.357  55.716  58.654  0.00  0.00    +0.000 C 
ATOM      2  C   UNL     1      36.262  54.523  58.140  0.00  0.00    +0.000 C 
ENDROOT
BRANCH   1   6
ATOM      3  C   UNL     1      34.199  58.923  56.882  0.00  0.00    +0.000 A 
ATOM      4  C   UNL     1      33.876  58.441  58.112  0.00  0.00    +0.000 A 
ATOM      5  C   UNL     1      34.554  57.407  58.708  0.00  0.00    +0.000 A 
ATOM      6  C   UNL     1      35.611  56.821  58.046  0.00  0.00    +0.000 A 
ATOM      7  C   UNL     1      35.952  57.296  56.800  0.00  0.00    +0.000 A 
ATOM      8  C   UNL     1      35.253  58.344  56.211  0.00  0.00    +0.000 A 
BRANCH   3   9
ATOM      9  O   UNL     1      33.487  59.978  56.301  0.00  0.00    +0.000 OA
BRANCH   9  10
ATOM     10  C   UNL     1      33.150  59.945  54.933  0.00  0.00    +0.000 C 
BRANCH  10  12
ATOM     11  C   UNL     1      30.920  60.354  56.011  0.00  0.00    +0.000 C 
ATOM     12  C   UNL     1      31.769  60.521  54.786  0.00  0.00    +0.000 C 
ENDBRANCH  10  12
ENDBRANCH   9  10
ENDBRANCH   3   9
ENDBRANCH   1   6
BRANCH   2  13
ATOM     13  C   UNL     1      36.935  53.337  58.627  0.00  0.00    +0.000 A 
ATOM     14  C   UNL     1      36.119  52.326  59.138  0.00  0.00    +0.000 A 
ATOM     15  C   UNL     1      36.694  51.191  59.609  0.00  0.00    +0.000 A 
ATOM     16  C   UNL     1      38.062  51.041  59.582  0.00  0.00    +0.000 A 
ATOM     17  C   UNL     1      38.901  52.021  59.083  0.00  0.00    +0.000 A 
ATOM     18  C   UNL     1      38.305  53.170  58.608  0.00  0.00    +0.000 A 
BRANCH  15  19
ATOM     19  O   UNL     1      35.884  50.161  60.128  0.00  0.00    +0.000 OA
ATOM     20  C   UNL     1      35.162  50.333  61.323  0.00  0.00    +0.000 C 
ENDBRANCH  15  19
BRANCH  16  21
ATOM     21  O   UNL     1      38.571  49.838  60.089  0.00  0.00    +0.000 OA
ATOM     22  C   UNL     1      39.000  49.704  61.430  0.00  0.00    +0.000 C 
ENDBRANCH  16  21
BRANCH  17  23
ATOM     23  O   UNL     1      40.256  51.794  59.093  0.00  0.00    +0.000 OA
ATOM     24  C   UNL     1      41.196  52.625  59.718  0.00  0.00    +0.000 C 
ENDBRANCH  17  23
ENDBRANCH   2  13
TORSDOF 8
ENDMDL
MODEL 5
REMARK VINA RESULT:      -5.7      1.706      9.110
REMARK  Name = 
REMARK  8 active torsions:
REMARK  status: ('A' for Active; 'I' for Inactive)
REMARK    1  A    between atoms: C_2  and  C_3
REMARK    2  A    between atoms: C_3  and  O_4
REMARK    3  A    between atoms: O_4  and  C_5
REMARK    4  A    between atoms: C_8  and  C_9
REMARK    5  A    between atoms: C_10  and  C_11
REMARK    6  A    between atoms: C_13  and  O_14
REMARK    7  A    between atoms: C_16  and  O_17
REMARK    8  A    between atoms: C_19  and  O_20
REMARK                            x       y       z     vdW  Elec       q    Type
REMARK                         _______ _______ _______ _____ _____    ______ ____
ROOT
ATOM      1  C   UNL     1      35.994  55.370  58.355  0.00  0.00    +0.000 C 
ATOM      2  C   UNL     1      36.464  56.300  57.574  0.00  0.00    +0.000 C 
ENDROOT
BRANCH   1   6
ATOM      3  C   UNL     1      38.683  52.668  60.238  0.00  0.00    +0.000 A 
ATOM      4  C   UNL     1      38.637  53.982  60.582  0.00  0.00    +0.000 A 
ATOM      5  C   UNL     1      37.780  54.877  59.992  0.00  0.00    +0.000 A 
ATOM      6  C   UNL     1      36.922  54.441  59.006  0.00  0.00    +0.000 A 
ATOM      7  C   UNL     1      36.955  53.114  58.644  0.00  0.00    +0.000 A 
ATOM      8  C   UNL     1      37.831  52.221  59.253  0.00  0.00    +0.000 A 
BRANCH   3   9
ATOM      9  O   UNL     1      39.569  51.781  60.859  0.00  0.00    +0.000 OA
BRANCH   9  10
ATOM     10  C   UNL     1      40.562  51.119  60.108  0.00  0.00    +0.000 C 
BRANCH  10  12
ATOM     11  C   UNL     1      41.834  52.221  58.245  0.00  0.00    +0.000 C 
ATOM     12  C   UNL     1      41.602  52.135  59.724  0.00  0.00    +0.000 C 
ENDBRANCH  10  12
ENDBRANCH   9  10
ENDBRANCH   3   9
ENDBRANCH   1   6
BRANCH   2  13
ATOM     13  C   UNL     1      35.675  57.286  56.865  0.00  0.00    +0.000 A 
ATOM     14  C   UNL     1      34.631  57.876  57.580  0.00  0.00    +0.000 A 
ATOM     15  C   UNL     1      33.857  58.807  56.967  0.00  0.00    +0.000 A 
ATOM     16  C   UNL     1      34.100  59.162  55.660  0.00  0.00    +0.000 A 
ATOM     17  C   UNL     1      35.125  58.599  54.921  0.00  0.00    +0.000 A 
ATOM     18  C   UNL     1      35.904  57.654  55.555  0.00  0.00    +0.000 A 
BRANCH  15  19
ATOM     19  O   UNL     1      32.800  59.412  57.675  0.00  0.00    +0.000 OA
ATOM     20  C   UNL     1      33.048  60.334  58.709  0.00  0.00    +0.000 C 
ENDBRANCH  15  19
BRANCH  16  21
ATOM     21  O   UNL     1      33.253  60.131  55.105  0.00  0.00    +0.000 OA
ATOM     22  C   UNL     1      33.587  61.505  55.085  0.00  0.00    +0.000 C 
ENDBRANCH  16  21
BRANCH  17  23
ATOM     23  O   UNL     1      35.301  59.008  53.622  0.00  0.00    +0.000 OA
ATOM     24  C   UNL     1      36.539  59.056  52.965  0.00  0.00    +0.000 C 
ENDBRANCH  17  23
ENDBRANCH   2  13
TORSDOF 8
ENDMDL
MODEL 6
REMARK VINA RESULT:      -5.7      1.558      3.242
REMARK  Name = 
REMARK  8 active torsions:
REMARK  status: ('A' for Active; 'I' for Inactive)
REMARK    1  A    between atoms: C_2  and  C_3
REMARK    2  A    between atoms: C_3  and  O_4
REMARK    3  A    between atoms: O_4  and  C_5
REMARK    4  A    between atoms: C_8  and  C_9
REMARK    5  A    between atoms: C_10  and  C_11
REMARK    6  A    between atoms: C_13  and  O_14
REMARK    7  A    between atoms: C_16  and  O_17
REMARK    8  A    between atoms: C_19  and  O_20
REMARK                            x       y       z     vdW  Elec       q    Type
REMARK                         _______ _______ _______ _____ _____    ______ ____
ROOT
ATOM      1  C   UNL     1      36.312  56.176  58.193  0.00  0.00    +0.000 C 
ATOM      2  C   UNL     1      36.218  54.891  57.999  0.00  0.00    +0.000 C 
ENDROOT
BRANCH   1   6
ATOM      3  C   UNL     1      34.874  58.850  55.216  0.00  0.00    +0.000 A 
ATOM      4  C   UNL     1      35.851  57.944  54.947  0.00  0.00    +0.000 A 
ATOM      5  C   UNL     1      36.335  57.068  55.887  0.00  0.00    +0.000 A 
ATOM      6  C   UNL     1      35.819  57.096  57.164  0.00  0.00    +0.000 A 
ATOM      7  C   UNL     1      34.829  58.007  57.456  0.00  0.00    +0.000 A 
ATOM      8  C   UNL     1      34.351  58.887  56.490  0.00  0.00    +0.000 A 
BRANCH   3   9
ATOM      9  O   UNL     1      34.402  59.729  54.235  0.00  0.00    +0.000 OA
BRANCH   9  10
ATOM     10  C   UNL     1      35.306  60.465  53.441  0.00  0.00    +0.000 C 
BRANCH  10  12
ATOM     11  C   UNL     1      34.029  62.229  54.690  0.00  0.00    +0.000 C 
ATOM     12  C   UNL     1      35.259  61.896  53.898  0.00  0.00    +0.000 C 
ENDBRANCH  10  12
ENDBRANCH   9  10
ENDBRANCH   3   9
ENDBRANCH   1   6
BRANCH   2  13
ATOM     13  C   UNL     1      36.660  53.863  58.919  0.00  0.00    +0.000 A 
ATOM     14  C   UNL     1      38.040  53.704  59.054  0.00  0.00    +0.000 A 
ATOM     15  C   UNL     1      38.513  52.756  59.902  0.00  0.00    +0.000 A 
ATOM     16  C   UNL     1      37.642  51.964  60.616  0.00  0.00    +0.000 A 
ATOM     17  C   UNL     1      36.269  52.095  60.506  0.00  0.00    +0.000 A 
ATOM     18  C   UNL     1      35.801  53.061  59.642  0.00  0.00    +0.000 A 
BRANCH  15  19
ATOM     19  O   UNL     1      39.903  52.583  60.050  0.00  0.00    +0.000 OA
ATOM     20  C   UNL     1      40.688  53.534  60.726  0.00  0.00    +0.000 C 
ENDBRANCH  15  19
BRANCH  16  21
ATOM     21  O   UNL     1      38.215  51.011  61.468  0.00  0.00    +0.000 OA
ATOM     22  C   UNL     1      38.449  51.266  62.839  0.00  0.00    +0.000 C 
ENDBRANCH  16  21
BRANCH  17  23
ATOM     23  O   UNL     1      35.468  51.266  61.254  0.00  0.00    +0.000 OA
ATOM     24  C   UNL     1      34.858  50.101  60.768  0.00  0.00    +0.000 C 
ENDBRANCH  17  23
ENDBRANCH   2  13
TORSDOF 8
ENDMDL
MODEL 7
REMARK VINA RESULT:      -5.6      3.040      9.029
REMARK  Name = 
REMARK  8 active torsions:
REMARK  status: ('A' for Active; 'I' for Inactive)
REMARK    1  A    between atoms: C_2  and  C_3
REMARK    2  A    between atoms: C_3  and  O_4
REMARK    3  A    between atoms: O_4  and  C_5
REMARK    4  A    between atoms: C_8  and  C_9
REMARK    5  A    between atoms: C_10  and  C_11
REMARK    6  A    between atoms: C_13  and  O_14
REMARK    7  A    between atoms: C_16  and  O_17
REMARK    8  A    between atoms: C_19  and  O_20
REMARK                            x       y       z     vdW  Elec       q    Type
REMARK                         _______ _______ _______ _____ _____    ______ ____
ROOT
ATOM      1  C   UNL     1      35.432  55.258  58.796  0.00  0.00    +0.000 C 
ATOM      2  C   UNL     1      36.118  55.506  57.716  0.00  0.00    +0.000 C 
ENDROOT
BRANCH   1   6
ATOM      3  C   UNL     1      35.069  51.251  60.173  0.00  0.00    +0.000 A 
ATOM      4  C   UNL     1      35.295  51.537  58.863  0.00  0.00    +0.000 A 
ATOM      5  C   UNL     1      35.417  52.819  58.389  0.00  0.00    +0.000 A 
ATOM      6  C   UNL     1      35.307  53.876  59.267  0.00  0.00    +0.000 A 
ATOM      7  C   UNL     1      35.078  53.607  60.597  0.00  0.00    +0.000 A 
ATOM      8  C   UNL     1      34.957  52.300  61.058  0.00  0.00    +0.000 A 
BRANCH   3   9
ATOM      9  O   UNL     1      34.950  49.932  60.623  0.00  0.00    +0.000 OA
BRANCH   9  10
ATOM     10  C   UNL     1      34.969  49.644  62.003  0.00  0.00    +0.000 C 
BRANCH  10  12
ATOM     11  C   UNL     1      37.001  48.310  61.378  0.00  0.00    +0.000 C 
ATOM     12  C   UNL     1      36.369  49.242  62.370  0.00  0.00    +0.000 C 
ENDBRANCH  10  12
ENDBRANCH   9  10
ENDBRANCH   3   9
ENDBRANCH   1   6
BRANCH   2  13
ATOM     13  C   UNL     1      36.329  56.814  57.131  0.00  0.00    +0.000 A 
ATOM     14  C   UNL     1      36.472  57.877  58.024  0.00  0.00    +0.000 A 
ATOM     15  C   UNL     1      36.672  59.126  57.533  0.00  0.00    +0.000 A 
ATOM     16  C   UNL     1      36.733  59.338  56.174  0.00  0.00    +0.000 A 
ATOM     17  C   UNL     1      36.596  58.309  55.261  0.00  0.00    +0.000 A 
ATOM     18  C   UNL     1      36.392  57.044  55.772  0.00  0.00    +0.000 A 
BRANCH  15  19
ATOM     19  O   UNL     1      36.818  60.210  58.421  0.00  0.00    +0.000 OA
ATOM     20  C   UNL     1      37.906  60.283  59.310  0.00  0.00    +0.000 C 
ENDBRANCH  15  19
BRANCH  16  21
ATOM     21  O   UNL     1      36.942  60.659  55.755  0.00  0.00    +0.000 OA
ATOM     22  C   UNL     1      35.873  61.554  55.516  0.00  0.00    +0.000 C 
ENDBRANCH  16  21
BRANCH  17  23
ATOM     23  O   UNL     1      36.668  58.604  53.921  0.00  0.00    +0.000 OA
ATOM     24  C   UNL     1      35.558  58.745  53.077  0.00  0.00    +0.000 C 
ENDBRANCH  17  23
ENDBRANCH   2  13
TORSDOF 8
ENDMDL
MODEL 8
REMARK VINA RESULT:      -5.6      1.991      9.236
REMARK  Name = 
REMARK  8 active torsions:
REMARK  status: ('A' for Active; 'I' for Inactive)
REMARK    1  A    between atoms: C_2  and  C_3
REMARK    2  A    between atoms: C_3  and  O_4
REMARK    3  A    between atoms: O_4  and  C_5
REMARK    4  A    between atoms: C_8  and  C_9
REMARK    5  A    between atoms: C_10  and  C_11
REMARK    6  A    between atoms: C_13  and  O_14
REMARK    7  A    between atoms: C_16  and  O_17
REMARK    8  A    between atoms: C_19  and  O_20
REMARK                            x       y       z     vdW  Elec       q    Type
REMARK                         _______ _______ _______ _____ _____    ______ ____
ROOT
ATOM      1  C   UNL     1      36.231  56.548  57.782  0.00  0.00    +0.000 C 
ATOM      2  C   UNL     1      35.324  57.483  57.792  0.00  0.00    +0.000 C 
ENDROOT
BRANCH   1   6
ATOM      3  C   UNL     1      36.314  53.679  60.920  0.00  0.00    +0.000 A 
ATOM      4  C   UNL     1      35.193  54.396  60.639  0.00  0.00    +0.000 A 
ATOM      5  C   UNL     1      35.137  55.328  59.634  0.00  0.00    +0.000 A 
ATOM      6  C   UNL     1      36.256  55.560  58.864  0.00  0.00    +0.000 A 
ATOM      7  C   UNL     1      37.400  54.844  59.134  0.00  0.00    +0.000 A 
ATOM      8  C   UNL     1      37.439  53.903  60.158  0.00  0.00    +0.000 A 
BRANCH   3   9
ATOM      9  O   UNL     1      36.339  52.736  61.952  0.00  0.00    +0.000 OA
BRANCH   9  10
ATOM     10  C   UNL     1      35.304  51.786  62.079  0.00  0.00    +0.000 C 
BRANCH  10  12
ATOM     11  C   UNL     1      34.793  50.586  59.934  0.00  0.00    +0.000 C 
ATOM     12  C   UNL     1      35.630  50.629  61.178  0.00  0.00    +0.000 C 
ENDBRANCH  10  12
ENDBRANCH   9  10
ENDBRANCH   3   9
ENDBRANCH   1   6
BRANCH   2  13
ATOM     13  C   UNL     1      35.173  58.525  56.797  0.00  0.00    +0.000 A 
ATOM     14  C   UNL     1      36.322  59.255  56.485  0.00  0.00    +0.000 A 
ATOM     15  C   UNL     1      36.242  60.244  55.560  0.00  0.00    +0.000 A 
ATOM     16  C   UNL     1      35.045  60.521  54.939  0.00  0.00    +0.000 A 
ATOM     17  C   UNL     1      33.888  59.818  55.223  0.00  0.00    +0.000 A 
ATOM     18  C   UNL     1      33.982  58.816  56.165  0.00  0.00    +0.000 A 
BRANCH  15  19
ATOM     19  O   UNL     1      37.392  60.990  55.234  0.00  0.00    +0.000 OA
ATOM     20  C   UNL     1      38.075  61.741  56.208  0.00  0.00    +0.000 C 
ENDBRANCH  15  19
BRANCH  16  21
ATOM     21  O   UNL     1      35.052  61.558  53.997  0.00  0.00    +0.000 OA
ATOM     22  C   UNL     1      34.688  62.883  54.330  0.00  0.00    +0.000 C 
ENDBRANCH  16  21
BRANCH  17  23
ATOM     23  O   UNL     1      32.733  60.156  54.560  0.00  0.00    +0.000 OA
ATOM     24  C   UNL     1      31.531  60.511  55.188  0.00  0.00    +0.000 C 
ENDBRANCH  17  23
ENDBRANCH   2  13
TORSDOF 8
ENDMDL
MODEL 9
REMARK VINA RESULT:      -5.6      3.133      8.770
REMARK  Name = 
REMARK  8 active torsions:
REMARK  status: ('A' for Active; 'I' for Inactive)
REMARK    1  A    between atoms: C_2  and  C_3
REMARK    2  A    between atoms: C_3  and  O_4
REMARK    3  A    between atoms: O_4  and  C_5
REMARK    4  A    between atoms: C_8  and  C_9
REMARK    5  A    between atoms: C_10  and  C_11
REMARK    6  A    between atoms: C_13  and  O_14
REMARK    7  A    between atoms: C_16  and  O_17
REMARK    8  A    between atoms: C_19  and  O_20
REMARK                            x       y       z     vdW  Elec       q    Type
REMARK                         _______ _______ _______ _____ _____    ______ ____
ROOT
ATOM      1  C   UNL     1      36.165  55.165  59.105  0.00  0.00    +0.000 C 
ATOM      2  C   UNL     1      35.935  55.564  57.886  0.00  0.00    +0.000 C 
ENDROOT
BRANCH   1   6
ATOM      3  C   UNL     1      34.971  51.260  60.291  0.00  0.00    +0.000 A 
ATOM      4  C   UNL     1      34.963  51.642  58.986  0.00  0.00    +0.000 A 
ATOM      5  C   UNL     1      35.343  52.895  58.574  0.00  0.00    +0.000 A 
ATOM      6  C   UNL     1      35.753  53.819  59.510  0.00  0.00    +0.000 A 
ATOM      7  C   UNL     1      35.767  53.451  60.836  0.00  0.00    +0.000 A 
ATOM      8  C   UNL     1      35.379  52.176  61.236  0.00  0.00    +0.000 A 
BRANCH   3   9
ATOM      9  O   UNL     1      34.578  49.975  60.679  0.00  0.00    +0.000 OA
BRANCH   9  10
ATOM     10  C   UNL     1      35.237  49.314  61.736  0.00  0.00    +0.000 C 
BRANCH  10  12
ATOM     11  C   UNL     1      33.071  48.061  61.925  0.00  0.00    +0.000 C 
ATOM     12  C   UNL     1      34.187  48.750  62.651  0.00  0.00    +0.000 C 
ENDBRANCH  10  12
ENDBRANCH   9  10
ENDBRANCH   3   9
ENDBRANCH   1   6
BRANCH   2  13
ATOM     13  C   UNL     1      36.282  56.860  57.341  0.00  0.00    +0.000 A 
ATOM     14  C   UNL     1      36.363  56.946  55.950  0.00  0.00    +0.000 A 
ATOM     15  C   UNL     1      36.685  58.136  55.382  0.00  0.00    +0.000 A 
ATOM     16  C   UNL     1      36.927  59.240  56.169  0.00  0.00    +0.000 A 
ATOM     17  C   UNL     1      36.855  59.190  57.549  0.00  0.00    +0.000 A 
ATOM     18  C   UNL     1      36.528  57.976  58.115  0.00  0.00    +0.000 A 
BRANCH  15  19
ATOM     19  O   UNL     1      36.770  58.240  53.980  0.00  0.00    +0.000 OA
ATOM     20  C   UNL     1      35.647  58.579  53.204  0.00  0.00    +0.000 C 
ENDBRANCH  15  19
BRANCH  16  21
ATOM     21  O   UNL     1      37.252  60.427  55.500  0.00  0.00    +0.000 OA
ATOM     22  C   UNL     1      36.314  61.468  55.308  0.00  0.00    +0.000 C 
ENDBRANCH  16  21
BRANCH  17  23
ATOM     23  O   UNL     1      37.112  60.336  58.262  0.00  0.00    +0.000 OA
ATOM     24  C   UNL     1      38.149  60.477  59.194  0.00  0.00    +0.000 C 
ENDBRANCH  17  23
ENDBRANCH   2  13
TORSDOF 8
ENDMDL
MODEL 10
REMARK VINA RESULT:      -5.5      2.095      2.408
REMARK  Name = 
REMARK  8 active torsions:
REMARK  status: ('A' for Active; 'I' for Inactive)
REMARK    1  A    between atoms: C_2  and  C_3
REMARK    2  A    between atoms: C_3  and  O_4
REMARK    3  A    between atoms: O_4  and  C_5
REMARK    4  A    between atoms: C_8  and  C_9
REMARK    5  A    between atoms: C_10  and  C_11
REMARK    6  A    between atoms: C_13  and  O_14
REMARK    7  A    between atoms: C_16  and  O_17
REMARK    8  A    between atoms: C_19  and  O_20
REMARK                            x       y       z     vdW  Elec       q    Type
REMARK                         _______ _______ _______ _____ _____    ______ ____
ROOT
ATOM      1  C   UNL     1      36.485  56.021  57.670  0.00  0.00    +0.000 C 
ATOM      2  C   UNL     1      35.948  55.939  58.854  0.00  0.00    +0.000 C 
ENDROOT
BRANCH   1   6
ATOM      3  C   UNL     1      35.007  58.886  54.897  0.00  0.00    +0.000 A 
ATOM      4  C   UNL     1      34.572  58.851  56.184  0.00  0.00    +0.000 A 
ATOM      5  C   UNL     1      35.030  57.938  57.102  0.00  0.00    +0.000 A 
ATOM      6  C   UNL     1      35.973  57.010  56.717  0.00  0.00    +0.000 A 
ATOM      7  C   UNL     1      36.425  57.030  55.417  0.00  0.00    +0.000 A 
ATOM      8  C   UNL     1      35.948  57.962  54.501  0.00  0.00    +0.000 A 
BRANCH   3   9
ATOM      9  O   UNL     1      34.519  59.829  53.986  0.00  0.00    +0.000 OA
BRANCH   9  10
ATOM     10  C   UNL     1      35.390  60.763  53.389  0.00  0.00    +0.000 C 
BRANCH  10  12
ATOM     11  C   UNL     1      36.643  62.167  55.051  0.00  0.00    +0.000 C 
ATOM     12  C   UNL     1      35.391  62.001  54.241  0.00  0.00    +0.000 C 
ENDBRANCH  10  12
ENDBRANCH   9  10
ENDBRANCH   3   9
ENDBRANCH   1   6
BRANCH   2  13
ATOM     13  C   UNL     1      36.344  55.016  59.899  0.00  0.00    +0.000 A 
ATOM     14  C   UNL     1      35.484  53.942  60.135  0.00  0.00    +0.000 A 
ATOM     15  C   UNL     1      35.802  53.045  61.102  0.00  0.00    +0.000 A 
ATOM     16  C   UNL     1      36.957  53.195  61.837  0.00  0.00    +0.000 A 
ATOM     17  C   UNL     1      37.831  54.246  61.630  0.00  0.00    +0.000 A 
ATOM     18  C   UNL     1      37.497  55.151  60.645  0.00  0.00    +0.000 A 
BRANCH  15  19
ATOM     19  O   UNL     1      34.945  51.955  61.353  0.00  0.00    +0.000 OA
ATOM     20  C   UNL     1      34.905  50.845  60.489  0.00  0.00    +0.000 C 
ENDBRANCH  15  19
BRANCH  16  21
ATOM     21  O   UNL     1      37.208  52.223  62.815  0.00  0.00    +0.000 OA
ATOM     22  C   UNL     1      38.043  51.107  62.575  0.00  0.00    +0.000 C 
ENDBRANCH  16  21
BRANCH  17  23
ATOM     23  O   UNL     1      38.962  54.324  62.406  0.00  0.00    +0.000 OA
ATOM     24  C   UNL     1      40.243  54.614  61.917  0.00  0.00    +0.000 C 
ENDBRANCH  17  23
ENDBRANCH   2  13
TORSDOF 8
ENDMDL
