REMARK  Name = 
REMARK  8 active torsions:
REMARK  status: ('A' for Active; 'I' for Inactive)
REMARK    1  A    between atoms: C_2  and  C_3
REMARK    2  A    between atoms: C_3  and  O_4
REMARK    3  A    between atoms: O_4  and  C_5
REMARK    4  A    between atoms: C_8  and  C_9
REMARK    5  A    between atoms: C_10  and  C_11
REMARK    6  A    between atoms: C_13  and  O_14
REMARK    7  A    between atoms: C_16  and  O_17
REMARK    8  A    between atoms: C_19  and  O_20
REMARK                            x       y       z     vdW  Elec       q    Type
REMARK                         _______ _______ _______ _____ _____    ______ ____
ROOT
ATOM      1  C   UNL     1       0.329  -0.277  -1.181  0.00  0.00    +0.000 C 
ATOM      2  C   UNL     1      -0.207  -0.053  -0.015  0.00  0.00    +0.000 C 
ENDROOT
BRANCH   1   6
ATOM      3  C   UNL     1       4.510   0.289  -1.708  0.00  0.00    +0.000 A 
ATOM      4  C   UNL     1       3.907   0.510  -0.510  0.00  0.00    +0.000 A 
ATOM      5  C   UNL     1       2.560   0.336  -0.310  0.00  0.00    +0.000 A 
ATOM      6  C   UNL     1       1.770  -0.081  -1.359  0.00  0.00    +0.000 A 
ATOM      7  C   UNL     1       2.363  -0.309  -2.580  0.00  0.00    +0.000 A 
ATOM      8  C   UNL     1       3.730  -0.127  -2.764  0.00  0.00    +0.000 A 
BRANCH   3   9
ATOM      9  O   UNL     1       5.886   0.476  -1.879  0.00  0.00    +0.000 OA
BRANCH   9  10
ATOM     10  C   UNL     1       6.689   0.902  -0.801  0.00  0.00    +0.000 C 
BRANCH  10  12
ATOM     11  C   UNL     1       7.386   0.207   1.508  0.00  0.00    +0.000 C 
ATOM     12  C   UNL     1       6.574  -0.124   0.291  0.00  0.00    +0.000 C 
ENDBRANCH  10  12
ENDBRANCH   9  10
ENDBRANCH   3   9
ENDBRANCH   1   6
BRANCH   2  13
ATOM     13  C   UNL     1      -1.610  -0.202   0.313  0.00  0.00    +0.000 A 
ATOM     14  C   UNL     1      -1.973   0.091   1.629  0.00  0.00    +0.000 A 
ATOM     15  C   UNL     1      -3.274  -0.031   1.995  0.00  0.00    +0.000 A 
ATOM     16  C   UNL     1      -4.219  -0.437   1.080  0.00  0.00    +0.000 A 
ATOM     17  C   UNL     1      -3.895  -0.735  -0.231  0.00  0.00    +0.000 A 
ATOM     18  C   UNL     1      -2.570  -0.608  -0.591  0.00  0.00    +0.000 A 
BRANCH  15  19
ATOM     19  O   UNL     1      -3.657   0.261   3.319  0.00  0.00    +0.000 OA
ATOM     20  C   UNL     1      -2.714   0.678   4.276  0.00  0.00    +0.000 C 
ENDBRANCH  15  19
BRANCH  16  21
ATOM     21  O   UNL     1      -5.538  -0.536   1.543  0.00  0.00    +0.000 OA
ATOM     22  C   UNL     1      -6.442   0.550   1.486  0.00  0.00    +0.000 C 
ENDBRANCH  16  21
BRANCH  17  23
ATOM     23  O   UNL     1      -4.897  -1.134  -1.082  0.00  0.00    +0.000 OA
ATOM     24  C   UNL     1      -4.709  -1.465  -2.431  0.00  0.00    +0.000 C 
ENDBRANCH  17  23
ENDBRANCH   2  13
TORSDOF 8
