MODEL 1
REMARK VINA RESULT:      -6.5      0.000      0.000
REMARK  Name = 
REMARK  6 active torsions:
REMARK  status: ('A' for Active; 'I' for Inactive)
REMARK    1  A    between atoms: O_2  and  C_3
REMARK    2  A    between atoms: C_6  and  C_7
REMARK    3  A    between atoms: C_8  and  C_9
REMARK    4  A    between atoms: C_11  and  O_12
REMARK    5  A    between atoms: C_14  and  O_15
REMARK    6  A    between atoms: C_17  and  O_18
REMARK                            x       y       z     vdW  Elec       q    Type
REMARK                         _______ _______ _______ _____ _____    ______ ____
ROOT
ATOM      1  C   UNL     1      36.298  56.513  56.765  0.00  0.00    +0.000 C 
ATOM      2  C   UNL     1      35.925  56.188  57.981  0.00  0.00    +0.000 C 
ENDROOT
BRANCH   1   6
ATOM      3  C   UNL     1      34.978  60.051  54.787  0.00  0.00    +0.000 A 
ATOM      4  C   UNL     1      34.349  59.555  55.911  0.00  0.00    +0.000 A 
ATOM      5  C   UNL     1      34.773  58.410  56.554  0.00  0.00    +0.000 A 
ATOM      6  C   UNL     1      35.849  57.726  56.083  0.00  0.00    +0.000 A 
ATOM      7  C   UNL     1      36.493  58.205  54.959  0.00  0.00    +0.000 A 
ATOM      8  O   UNL     1      37.605  57.485  54.483  0.00  0.00    +0.000 OA
ATOM      9  C   UNL     1      36.064  59.350  54.319  0.00  0.00    +0.000 A 
ATOM     10  O   UNL     1      36.738  59.811  53.182  0.00  0.00    +0.000 OA
BRANCH   3  12
ATOM     11  C   UNL     1      33.789  62.158  54.907  0.00  0.00    +0.000 C 
ATOM     12  O   UNL     1      34.528  61.222  54.146  0.00  0.00    +0.000 OA
ENDBRANCH   3  12
ENDBRANCH   1   6
BRANCH   2  13
ATOM     13  C   UNL     1      36.426  54.959  58.577  0.00  0.00    +0.000 A 
ATOM     14  C   UNL     1      37.529  54.953  59.396  0.00  0.00    +0.000 A 
ATOM     15  C   UNL     1      38.016  53.787  59.968  0.00  0.00    +0.000 A 
ATOM     16  C   UNL     1      37.347  52.621  59.684  0.00  0.00    +0.000 A 
ATOM     17  C   UNL     1      36.234  52.576  58.868  0.00  0.00    +0.000 A 
ATOM     18  C   UNL     1      35.790  53.763  58.322  0.00  0.00    +0.000 A 
BRANCH  15  19
ATOM     19  O   UNL     1      39.129  53.802  60.792  0.00  0.00    +0.000 OA
ATOM     20  C   UNL     1      40.438  53.956  60.331  0.00  0.00    +0.000 C 
ENDBRANCH  15  19
BRANCH  16  21
ATOM     21  O   UNL     1      37.861  51.457  60.277  0.00  0.00    +0.000 OA
ATOM     22  C   UNL     1      38.785  50.625  59.599  0.00  0.00    +0.000 C 
ENDBRANCH  16  21
BRANCH  17  23
ATOM     23  O   UNL     1      35.611  51.353  58.627  0.00  0.00    +0.000 OA
ATOM     24  C   UNL     1      34.484  50.977  59.407  0.00  0.00    +0.000 C 
ENDBRANCH  17  23
ENDBRANCH   2  13
TORSDOF 6
ENDMDL
MODEL 2
REMARK VINA RESULT:      -6.5      0.169      2.591
REMARK  Name = 
REMARK  6 active torsions:
REMARK  status: ('A' for Active; 'I' for Inactive)
REMARK    1  A    between atoms: O_2  and  C_3
REMARK    2  A    between atoms: C_6  and  C_7
REMARK    3  A    between atoms: C_8  and  C_9
REMARK    4  A    between atoms: C_11  and  O_12
REMARK    5  A    between atoms: C_14  and  O_15
REMARK    6  A    between atoms: C_17  and  O_18
REMARK                            x       y       z     vdW  Elec       q    Type
REMARK                         _______ _______ _______ _____ _____    ______ ____
ROOT
ATOM      1  C   UNL     1      36.212  56.518  56.669  0.00  0.00    +0.000 C 
ATOM      2  C   UNL     1      36.068  56.327  57.961  0.00  0.00    +0.000 C 
ENDROOT
BRANCH   1   6
ATOM      3  C   UNL     1      35.017  60.100  54.691  0.00  0.00    +0.000 A 
ATOM      4  C   UNL     1      34.336  59.595  55.781  0.00  0.00    +0.000 A 
ATOM      5  C   UNL     1      34.720  58.436  56.423  0.00  0.00    +0.000 A 
ATOM      6  C   UNL     1      35.806  57.745  55.988  0.00  0.00    +0.000 A 
ATOM      7  C   UNL     1      36.502  58.233  54.898  0.00  0.00    +0.000 A 
ATOM      8  O   UNL     1      37.625  57.507  54.459  0.00  0.00    +0.000 OA
ATOM      9  C   UNL     1      36.114  59.393  54.259  0.00  0.00    +0.000 A 
ATOM     10  O   UNL     1      36.841  59.861  53.158  0.00  0.00    +0.000 OA
BRANCH   3  12
ATOM     11  C   UNL     1      34.154  62.358  54.853  0.00  0.00    +0.000 C 
ATOM     12  O   UNL     1      34.608  61.286  54.049  0.00  0.00    +0.000 OA
ENDBRANCH   3  12
ENDBRANCH   1   6
BRANCH   2  13
ATOM     13  C   UNL     1      36.503  55.069  58.549  0.00  0.00    +0.000 A 
ATOM     14  C   UNL     1      35.847  53.890  58.293  0.00  0.00    +0.000 A 
ATOM     15  C   UNL     1      36.253  52.686  58.850  0.00  0.00    +0.000 A 
ATOM     16  C   UNL     1      37.351  52.714  59.677  0.00  0.00    +0.000 A 
ATOM     17  C   UNL     1      38.043  53.874  59.962  0.00  0.00    +0.000 A 
ATOM     18  C   UNL     1      37.599  55.046  59.385  0.00  0.00    +0.000 A 
BRANCH  15  19
ATOM     19  O   UNL     1      35.579  51.507  58.580  0.00  0.00    +0.000 OA
ATOM     20  C   UNL     1      34.308  51.205  59.072  0.00  0.00    +0.000 C 
ENDBRANCH  15  19
BRANCH  16  21
ATOM     21  O   UNL     1      37.739  51.482  60.224  0.00  0.00    +0.000 OA
ATOM     22  C   UNL     1      38.696  50.655  59.587  0.00  0.00    +0.000 C 
ENDBRANCH  16  21
BRANCH  17  23
ATOM     23  O   UNL     1      39.146  53.820  60.812  0.00  0.00    +0.000 OA
ATOM     24  C   UNL     1      40.455  53.907  60.264  0.00  0.00    +0.000 C 
ENDBRANCH  17  23
ENDBRANCH   2  13
TORSDOF 6
ENDMDL
MODEL 3
REMARK VINA RESULT:      -6.2      1.523      8.522
REMARK  Name = 
REMARK  6 active torsions:
REMARK  status: ('A' for Active; 'I' for Inactive)
REMARK    1  A    between atoms: O_2  and  C_3
REMARK    2  A    between atoms: C_6  and  C_7
REMARK    3  A    between atoms: C_8  and  C_9
REMARK    4  A    between atoms: C_11  and  O_12
REMARK    5  A    between atoms: C_14  and  O_15
REMARK    6  A    between atoms: C_17  and  O_18
REMARK                            x       y       z     vdW  Elec       q    Type
REMARK                         _______ _______ _______ _____ _____    ______ ____
ROOT
ATOM      1  C   UNL     1      36.253  55.222  57.993  0.00  0.00    +0.000 C 
ATOM      2  C   UNL     1      36.511  56.510  57.969  0.00  0.00    +0.000 C 
ENDROOT
BRANCH   1   6
ATOM      3  C   UNL     1      38.424  52.454  60.399  0.00  0.00    +0.000 A 
ATOM      4  C   UNL     1      38.683  53.810  60.417  0.00  0.00    +0.000 A 
ATOM      5  C   UNL     1      37.983  54.709  59.640  0.00  0.00    +0.000 A 
ATOM      6  C   UNL     1      36.995  54.270  58.816  0.00  0.00    +0.000 A 
ATOM      7  C   UNL     1      36.720  52.916  58.782  0.00  0.00    +0.000 A 
ATOM      8  O   UNL     1      35.694  52.476  57.924  0.00  0.00    +0.000 OA
ATOM      9  C   UNL     1      37.424  52.021  59.561  0.00  0.00    +0.000 A 
ATOM     10  O   UNL     1      37.121  50.655  59.505  0.00  0.00    +0.000 OA
BRANCH   3  12
ATOM     11  C   UNL     1      40.446  51.171  60.772  0.00  0.00    +0.000 C 
ATOM     12  O   UNL     1      39.152  51.553  61.201  0.00  0.00    +0.000 OA
ENDBRANCH   3  12
ENDBRANCH   1   6
BRANCH   2  13
ATOM     13  C   UNL     1      35.716  57.381  57.116  0.00  0.00    +0.000 A 
ATOM     14  C   UNL     1      36.035  57.581  55.796  0.00  0.00    +0.000 A 
ATOM     15  C   UNL     1      35.285  58.410  54.974  0.00  0.00    +0.000 A 
ATOM     16  C   UNL     1      34.195  59.032  55.536  0.00  0.00    +0.000 A 
ATOM     17  C   UNL     1      33.835  58.861  56.858  0.00  0.00    +0.000 A 
ATOM     18  C   UNL     1      34.614  58.028  57.633  0.00  0.00    +0.000 A 
BRANCH  15  19
ATOM     19  O   UNL     1      35.622  58.599  53.644  0.00  0.00    +0.000 OA
ATOM     20  C   UNL     1      36.820  59.174  53.218  0.00  0.00    +0.000 C 
ENDBRANCH  15  19
BRANCH  16  21
ATOM     21  O   UNL     1      33.454  59.864  54.681  0.00  0.00    +0.000 OA
ATOM     22  C   UNL     1      33.682  61.260  54.624  0.00  0.00    +0.000 C 
ENDBRANCH  16  21
BRANCH  17  23
ATOM     23  O   UNL     1      32.716  59.529  57.352  0.00  0.00    +0.000 OA
ATOM     24  C   UNL     1      32.888  60.582  58.290  0.00  0.00    +0.000 C 
ENDBRANCH  17  23
ENDBRANCH   2  13
TORSDOF 6
ENDMDL
MODEL 4
REMARK VINA RESULT:      -6.1      1.430      8.624
REMARK  Name = 
REMARK  6 active torsions:
REMARK  status: ('A' for Active; 'I' for Inactive)
REMARK    1  A    between atoms: O_2  and  C_3
REMARK    2  A    between atoms: C_6  and  C_7
REMARK    3  A    between atoms: C_8  and  C_9
REMARK    4  A    between atoms: C_11  and  O_12
REMARK    5  A    between atoms: C_14  and  O_15
REMARK    6  A    between atoms: C_17  and  O_18
REMARK                            x       y       z     vdW  Elec       q    Type
REMARK                         _______ _______ _______ _____ _____    ______ ____
ROOT
ATOM      1  C   UNL     1      36.336  55.501  57.811  0.00  0.00    +0.000 C 
ATOM      2  C   UNL     1      36.049  56.720  58.208  0.00  0.00    +0.000 C 
ENDROOT
BRANCH   1   6
ATOM      3  C   UNL     1      38.121  52.580  60.350  0.00  0.00    +0.000 A 
ATOM      4  C   UNL     1      38.537  53.896  60.334  0.00  0.00    +0.000 A 
ATOM      5  C   UNL     1      37.962  54.844  59.513  0.00  0.00    +0.000 A 
ATOM      6  C   UNL     1      36.945  54.496  58.680  0.00  0.00    +0.000 A 
ATOM      7  C   UNL     1      36.514  53.184  58.681  0.00  0.00    +0.000 A 
ATOM      8  O   UNL     1      35.461  52.838  57.814  0.00  0.00    +0.000 OA
ATOM      9  C   UNL     1      37.093  52.239  59.504  0.00  0.00    +0.000 A 
ATOM     10  O   UNL     1      36.634  50.917  59.483  0.00  0.00    +0.000 OA
BRANCH   3  12
ATOM     11  C   UNL     1      39.982  51.101  60.821  0.00  0.00    +0.000 C 
ATOM     12  O   UNL     1      38.723  51.627  61.196  0.00  0.00    +0.000 OA
ENDBRANCH   3  12
ENDBRANCH   1   6
BRANCH   2  13
ATOM     13  C   UNL     1      35.442  57.652  57.269  0.00  0.00    +0.000 A 
ATOM     14  C   UNL     1      34.469  58.537  57.662  0.00  0.00    +0.000 A 
ATOM     15  C   UNL     1      33.883  59.429  56.775  0.00  0.00    +0.000 A 
ATOM     16  C   UNL     1      34.318  59.396  55.471  0.00  0.00    +0.000 A 
ATOM     17  C   UNL     1      35.294  58.525  55.030  0.00  0.00    +0.000 A 
ATOM     18  C   UNL     1      35.844  57.657  55.951  0.00  0.00    +0.000 A 
BRANCH  15  19
ATOM     19  O   UNL     1      32.902  60.315  57.189  0.00  0.00    +0.000 OA
ATOM     20  C   UNL     1      31.550  59.986  57.299  0.00  0.00    +0.000 C 
ENDBRANCH  15  19
BRANCH  16  21
ATOM     21  O   UNL     1      33.709  60.309  54.597  0.00  0.00    +0.000 OA
ATOM     22  C   UNL     1      34.224  61.615  54.410  0.00  0.00    +0.000 C 
ENDBRANCH  16  21
BRANCH  17  23
ATOM     23  O   UNL     1      35.680  58.552  53.692  0.00  0.00    +0.000 OA
ATOM     24  C   UNL     1      36.969  59.042  53.345  0.00  0.00    +0.000 C 
ENDBRANCH  17  23
ENDBRANCH   2  13
TORSDOF 6
ENDMDL
MODEL 5
REMARK VINA RESULT:      -5.8      3.796      9.150
REMARK  Name = 
REMARK  6 active torsions:
REMARK  status: ('A' for Active; 'I' for Inactive)
REMARK    1  A    between atoms: O_2  and  C_3
REMARK    2  A    between atoms: C_6  and  C_7
REMARK    3  A    between atoms: C_8  and  C_9
REMARK    4  A    between atoms: C_11  and  O_12
REMARK    5  A    between atoms: C_14  and  O_15
REMARK    6  A    between atoms: C_17  and  O_18
REMARK                            x       y       z     vdW  Elec       q    Type
REMARK                         _______ _______ _______ _____ _____    ______ ____
ROOT
ATOM      1  C   UNL     1      40.099  51.597  59.405  0.00  0.00    +0.000 C 
ATOM      2  C   UNL     1      39.671  52.655  58.754  0.00  0.00    +0.000 C 
ENDROOT
BRANCH   1   6
ATOM      3  C   UNL     1      44.212  50.504  59.633  0.00  0.00    +0.000 A 
ATOM      4  C   UNL     1      43.764  51.524  58.818  0.00  0.00    +0.000 A 
ATOM      5  C   UNL     1      42.433  51.880  58.742  0.00  0.00    +0.000 A 
ATOM      6  C   UNL     1      41.508  51.219  59.486  0.00  0.00    +0.000 A 
ATOM      7  C   UNL     1      41.936  50.195  60.309  0.00  0.00    +0.000 A 
ATOM      8  O   UNL     1      40.967  49.519  61.074  0.00  0.00    +0.000 OA
ATOM      9  C   UNL     1      43.268  49.842  60.382  0.00  0.00    +0.000 A 
ATOM     10  O   UNL     1      43.671  48.800  61.225  0.00  0.00    +0.000 OA
BRANCH   3  12
ATOM     11  C   UNL     1      46.397  50.838  60.626  0.00  0.00    +0.000 C 
ATOM     12  O   UNL     1      45.576  50.156  59.697  0.00  0.00    +0.000 OA
ENDBRANCH   3  12
ENDBRANCH   1   6
BRANCH   2  13
ATOM     13  C   UNL     1      38.247  52.950  58.730  0.00  0.00    +0.000 A 
ATOM     14  C   UNL     1      37.780  54.235  58.593  0.00  0.00    +0.000 A 
ATOM     15  C   UNL     1      36.425  54.527  58.569  0.00  0.00    +0.000 A 
ATOM     16  C   UNL     1      35.552  53.472  58.688  0.00  0.00    +0.000 A 
ATOM     17  C   UNL     1      35.973  52.165  58.827  0.00  0.00    +0.000 A 
ATOM     18  C   UNL     1      37.331  51.926  58.846  0.00  0.00    +0.000 A 
BRANCH  15  19
ATOM     19  O   UNL     1      35.973  55.830  58.430  0.00  0.00    +0.000 OA
ATOM     20  C   UNL     1      36.430  56.899  59.202  0.00  0.00    +0.000 C 
ENDBRANCH  15  19
BRANCH  16  21
ATOM     21  O   UNL     1      34.187  53.798  58.661  0.00  0.00    +0.000 OA
ATOM     22  C   UNL     1      33.482  54.144  59.839  0.00  0.00    +0.000 C 
ENDBRANCH  16  21
BRANCH  17  23
ATOM     23  O   UNL     1      35.025  51.151  58.943  0.00  0.00    +0.000 OA
ATOM     24  C   UNL     1      34.860  50.486  60.189  0.00  0.00    +0.000 C 
ENDBRANCH  17  23
ENDBRANCH   2  13
TORSDOF 6
ENDMDL
MODEL 6
REMARK VINA RESULT:      -5.7      3.625      9.418
REMARK  Name = 
REMARK  6 active torsions:
REMARK  status: ('A' for Active; 'I' for Inactive)
REMARK    1  A    between atoms: O_2  and  C_3
REMARK    2  A    between atoms: C_6  and  C_7
REMARK    3  A    between atoms: C_8  and  C_9
REMARK    4  A    between atoms: C_11  and  O_12
REMARK    5  A    between atoms: C_14  and  O_15
REMARK    6  A    between atoms: C_17  and  O_18
REMARK                            x       y       z     vdW  Elec       q    Type
REMARK                         _______ _______ _______ _____ _____    ______ ____
ROOT
ATOM      1  C   UNL     1      40.113  51.670  59.457  0.00  0.00    +0.000 C 
ATOM      2  C   UNL     1      39.658  52.548  58.593  0.00  0.00    +0.000 C 
ENDROOT
BRANCH   1   6
ATOM      3  C   UNL     1      44.168  50.358  59.534  0.00  0.00    +0.000 A 
ATOM      4  C   UNL     1      43.739  51.381  58.712  0.00  0.00    +0.000 A 
ATOM      5  C   UNL     1      42.427  51.808  58.685  0.00  0.00    +0.000 A 
ATOM      6  C   UNL     1      41.503  51.217  59.487  0.00  0.00    +0.000 A 
ATOM      7  C   UNL     1      41.912  50.191  60.317  0.00  0.00    +0.000 A 
ATOM      8  O   UNL     1      40.944  49.588  61.141  0.00  0.00    +0.000 OA
ATOM      9  C   UNL     1      43.225  49.767  60.340  0.00  0.00    +0.000 A 
ATOM     10  O   UNL     1      43.609  48.726  61.193  0.00  0.00    +0.000 OA
BRANCH   3  12
ATOM     11  C   UNL     1      45.935  49.019  58.556  0.00  0.00    +0.000 C 
ATOM     12  O   UNL     1      45.513  49.938  59.547  0.00  0.00    +0.000 OA
ENDBRANCH   3  12
ENDBRANCH   1   6
BRANCH   2  13
ATOM     13  C   UNL     1      38.257  52.938  58.642  0.00  0.00    +0.000 A 
ATOM     14  C   UNL     1      37.254  52.004  58.731  0.00  0.00    +0.000 A 
ATOM     15  C   UNL     1      35.915  52.365  58.778  0.00  0.00    +0.000 A 
ATOM     16  C   UNL     1      35.623  53.707  58.731  0.00  0.00    +0.000 A 
ATOM     17  C   UNL     1      36.597  54.682  58.643  0.00  0.00    +0.000 A 
ATOM     18  C   UNL     1      37.914  54.272  58.598  0.00  0.00    +0.000 A 
BRANCH  15  19
ATOM     19  O   UNL     1      34.917  51.408  58.868  0.00  0.00    +0.000 OA
ATOM     20  C   UNL     1      34.745  50.561  59.964  0.00  0.00    +0.000 C 
ENDBRANCH  15  19
BRANCH  16  21
ATOM     21  O   UNL     1      34.261  54.042  58.781  0.00  0.00    +0.000 OA
ATOM     22  C   UNL     1      33.619  54.361  60.002  0.00  0.00    +0.000 C 
ENDBRANCH  16  21
BRANCH  17  23
ATOM     23  O   UNL     1      36.220  56.022  58.600  0.00  0.00    +0.000 OA
ATOM     24  C   UNL     1      36.202  56.704  57.353  0.00  0.00    +0.000 C 
ENDBRANCH  17  23
ENDBRANCH   2  13
TORSDOF 6
ENDMDL
MODEL 7
REMARK VINA RESULT:      -5.7     12.263     13.537
REMARK  Name = 
REMARK  6 active torsions:
REMARK  status: ('A' for Active; 'I' for Inactive)
REMARK    1  A    between atoms: O_2  and  C_3
REMARK    2  A    between atoms: C_6  and  C_7
REMARK    3  A    between atoms: C_8  and  C_9
REMARK    4  A    between atoms: C_11  and  O_12
REMARK    5  A    between atoms: C_14  and  O_15
REMARK    6  A    between atoms: C_17  and  O_18
REMARK                            x       y       z     vdW  Elec       q    Type
REMARK                         _______ _______ _______ _____ _____    ______ ____
ROOT
ATOM      1  C   UNL     1      31.487  45.258  61.837  0.00  0.00    +0.000 C 
ATOM      2  C   UNL     1      31.700  44.275  60.992  0.00  0.00    +0.000 C 
ENDROOT
BRANCH   1   6
ATOM      3  C   UNL     1      27.593  46.658  62.858  0.00  0.00    +0.000 A 
ATOM      4  C   UNL     1      27.928  45.319  62.891  0.00  0.00    +0.000 A 
ATOM      5  C   UNL     1      29.187  44.863  62.561  0.00  0.00    +0.000 A 
ATOM      6  C   UNL     1      30.153  45.742  62.186  0.00  0.00    +0.000 A 
ATOM      7  C   UNL     1      29.838  47.087  62.147  0.00  0.00    +0.000 A 
ATOM      8  O   UNL     1      30.848  47.986  61.757  0.00  0.00    +0.000 OA
ATOM      9  C   UNL     1      28.577  47.539  62.477  0.00  0.00    +0.000 A 
ATOM     10  O   UNL     1      28.289  48.908  62.428  0.00  0.00    +0.000 OA
BRANCH   3  12
ATOM     11  C   UNL     1      25.979  47.236  64.571  0.00  0.00    +0.000 C 
ATOM     12  O   UNL     1      26.300  47.104  63.199  0.00  0.00    +0.000 OA
ENDBRANCH   3  12
ENDBRANCH   1   6
BRANCH   2  13
ATOM     13  C   UNL     1      33.066  43.862  60.707  0.00  0.00    +0.000 A 
ATOM     14  C   UNL     1      33.409  43.288  59.508  0.00  0.00    +0.000 A 
ATOM     15  C   UNL     1      34.707  42.890  59.227  0.00  0.00    +0.000 A 
ATOM     16  C   UNL     1      35.653  43.094  60.203  0.00  0.00    +0.000 A 
ATOM     17  C   UNL     1      35.357  43.669  61.423  0.00  0.00    +0.000 A 
ATOM     18  C   UNL     1      34.050  44.046  61.655  0.00  0.00    +0.000 A 
BRANCH  15  19
ATOM     19  O   UNL     1      35.034  42.312  58.011  0.00  0.00    +0.000 OA
ATOM     20  C   UNL     1      34.213  42.352  56.883  0.00  0.00    +0.000 C 
ENDBRANCH  15  19
BRANCH  16  21
ATOM     21  O   UNL     1      36.958  42.683  59.891  0.00  0.00    +0.000 OA
ATOM     22  C   UNL     1      37.902  43.574  59.326  0.00  0.00    +0.000 C 
ENDBRANCH  16  21
BRANCH  17  23
ATOM     23  O   UNL     1      36.372  43.841  62.361  0.00  0.00    +0.000 OA
ATOM     24  C   UNL     1      36.062  43.779  63.747  0.00  0.00    +0.000 C 
ENDBRANCH  17  23
ENDBRANCH   2  13
TORSDOF 6
ENDMDL
MODEL 8
REMARK VINA RESULT:      -5.7      1.698      3.282
REMARK  Name = 
REMARK  6 active torsions:
REMARK  status: ('A' for Active; 'I' for Inactive)
REMARK    1  A    between atoms: O_2  and  C_3
REMARK    2  A    between atoms: C_6  and  C_7
REMARK    3  A    between atoms: C_8  and  C_9
REMARK    4  A    between atoms: C_11  and  O_12
REMARK    5  A    between atoms: C_14  and  O_15
REMARK    6  A    between atoms: C_17  and  O_18
REMARK                            x       y       z     vdW  Elec       q    Type
REMARK                         _______ _______ _______ _____ _____    ______ ____
ROOT
ATOM      1  C   UNL     1      36.450  56.225  57.894  0.00  0.00    +0.000 C 
ATOM      2  C   UNL     1      36.029  54.986  58.020  0.00  0.00    +0.000 C 
ENDROOT
BRANCH   1   6
ATOM      3  C   UNL     1      34.995  58.903  54.915  0.00  0.00    +0.000 A 
ATOM      4  C   UNL     1      36.001  57.993  54.661  0.00  0.00    +0.000 A 
ATOM      5  C   UNL     1      36.475  57.125  55.623  0.00  0.00    +0.000 A 
ATOM      6  C   UNL     1      35.948  57.145  56.876  0.00  0.00    +0.000 A 
ATOM      7  C   UNL     1      34.939  58.048  57.151  0.00  0.00    +0.000 A 
ATOM      8  O   UNL     1      34.404  58.058  58.452  0.00  0.00    +0.000 OA
ATOM      9  C   UNL     1      34.469  58.915  56.185  0.00  0.00    +0.000 A 
ATOM     10  O   UNL     1      33.446  59.819  56.494  0.00  0.00    +0.000 OA
BRANCH   3  12
ATOM     11  C   UNL     1      35.331  60.893  53.574  0.00  0.00    +0.000 C 
ATOM     12  O   UNL     1      34.526  59.781  53.917  0.00  0.00    +0.000 OA
ENDBRANCH   3  12
ENDBRANCH   1   6
BRANCH   2  13
ATOM     13  C   UNL     1      36.589  54.145  59.066  0.00  0.00    +0.000 A 
ATOM     14  C   UNL     1      35.841  53.173  59.685  0.00  0.00    +0.000 A 
ATOM     15  C   UNL     1      36.365  52.366  60.685  0.00  0.00    +0.000 A 
ATOM     16  C   UNL     1      37.676  52.575  61.038  0.00  0.00    +0.000 A 
ATOM     17  C   UNL     1      38.467  53.538  60.444  0.00  0.00    +0.000 A 
ATOM     18  C   UNL     1      37.900  54.316  59.457  0.00  0.00    +0.000 A 
BRANCH  15  19
ATOM     19  O   UNL     1      35.594  51.391  61.297  0.00  0.00    +0.000 OA
ATOM     20  C   UNL     1      35.117  50.252  60.647  0.00  0.00    +0.000 C 
ENDBRANCH  15  19
BRANCH  16  21
ATOM     21  O   UNL     1      38.179  51.744  62.051  0.00  0.00    +0.000 OA
ATOM     22  C   UNL     1      38.834  50.524  61.753  0.00  0.00    +0.000 C 
ENDBRANCH  16  21
BRANCH  17  23
ATOM     23  O   UNL     1      39.789  53.688  60.860  0.00  0.00    +0.000 OA
ATOM     24  C   UNL     1      40.844  53.364  59.965  0.00  0.00    +0.000 C 
ENDBRANCH  17  23
ENDBRANCH   2  13
TORSDOF 6
ENDMDL
MODEL 9
REMARK VINA RESULT:      -5.7      6.164     12.054
REMARK  Name = 
REMARK  6 active torsions:
REMARK  status: ('A' for Active; 'I' for Inactive)
REMARK    1  A    between atoms: O_2  and  C_3
REMARK    2  A    between atoms: C_6  and  C_7
REMARK    3  A    between atoms: C_8  and  C_9
REMARK    4  A    between atoms: C_11  and  O_12
REMARK    5  A    between atoms: C_14  and  O_15
REMARK    6  A    between atoms: C_17  and  O_18
REMARK                            x       y       z     vdW  Elec       q    Type
REMARK                         _______ _______ _______ _____ _____    ______ ____
ROOT
ATOM      1  C   UNL     1      32.399  47.780  61.821  0.00  0.00    +0.000 C 
ATOM      2  C   UNL     1      33.557  47.880  62.434  0.00  0.00    +0.000 C 
ENDROOT
BRANCH   1   6
ATOM      3  C   UNL     1      29.646  44.606  62.538  0.00  0.00    +0.000 A 
ATOM      4  C   UNL     1      31.006  44.395  62.436  0.00  0.00    +0.000 A 
ATOM      5  C   UNL     1      31.900  45.419  62.204  0.00  0.00    +0.000 A 
ATOM      6  C   UNL     1      31.451  46.695  62.067  0.00  0.00    +0.000 A 
ATOM      7  C   UNL     1      30.093  46.929  62.166  0.00  0.00    +0.000 A 
ATOM      8  O   UNL     1      29.643  48.254  62.022  0.00  0.00    +0.000 OA
ATOM      9  C   UNL     1      29.203  45.900  62.398  0.00  0.00    +0.000 A 
ATOM     10  O   UNL     1      27.833  46.169  62.493  0.00  0.00    +0.000 OA
BRANCH   3  12
ATOM     11  C   UNL     1      28.656  42.520  61.805  0.00  0.00    +0.000 C 
ATOM     12  O   UNL     1      28.750  43.545  62.775  0.00  0.00    +0.000 OA
ENDBRANCH   3  12
ENDBRANCH   1   6
BRANCH   2  13
ATOM     13  C   UNL     1      34.434  48.999  62.123  0.00  0.00    +0.000 A 
ATOM     14  C   UNL     1      34.438  49.587  60.882  0.00  0.00    +0.000 A 
ATOM     15  C   UNL     1      35.270  50.652  60.574  0.00  0.00    +0.000 A 
ATOM     16  C   UNL     1      36.104  51.107  61.568  0.00  0.00    +0.000 A 
ATOM     17  C   UNL     1      36.135  50.549  62.831  0.00  0.00    +0.000 A 
ATOM     18  C   UNL     1      35.288  49.490  63.087  0.00  0.00    +0.000 A 
BRANCH  15  19
ATOM     19  O   UNL     1      35.260  51.233  59.316  0.00  0.00    +0.000 OA
ATOM     20  C   UNL     1      34.293  52.143  58.886  0.00  0.00    +0.000 C 
ENDBRANCH  15  19
BRANCH  16  21
ATOM     21  O   UNL     1      36.934  52.186  61.229  0.00  0.00    +0.000 OA
ATOM     22  C   UNL     1      36.573  53.523  61.527  0.00  0.00    +0.000 C 
ENDBRANCH  16  21
BRANCH  17  23
ATOM     23  O   UNL     1      37.009  51.067  63.785  0.00  0.00    +0.000 OA
ATOM     24  C   UNL     1      36.485  51.749  64.916  0.00  0.00    +0.000 C 
ENDBRANCH  17  23
ENDBRANCH   2  13
TORSDOF 6
ENDMDL
MODEL 10
REMARK VINA RESULT:      -5.7      6.192     11.908
REMARK  Name = 
REMARK  6 active torsions:
REMARK  status: ('A' for Active; 'I' for Inactive)
REMARK    1  A    between atoms: O_2  and  C_3
REMARK    2  A    between atoms: C_6  and  C_7
REMARK    3  A    between atoms: C_8  and  C_9
REMARK    4  A    between atoms: C_11  and  O_12
REMARK    5  A    between atoms: C_14  and  O_15
REMARK    6  A    between atoms: C_17  and  O_18
REMARK                            x       y       z     vdW  Elec       q    Type
REMARK                         _______ _______ _______ _____ _____    ______ ____
ROOT
ATOM      1  C   UNL     1      32.439  47.773  61.810  0.00  0.00    +0.000 C 
ATOM      2  C   UNL     1      33.562  47.925  62.475  0.00  0.00    +0.000 C 
ENDROOT
BRANCH   1   6
ATOM      3  C   UNL     1      29.720  44.568  62.521  0.00  0.00    +0.000 A 
ATOM      4  C   UNL     1      31.081  44.370  62.407  0.00  0.00    +0.000 A 
ATOM      5  C   UNL     1      31.964  45.405  62.176  0.00  0.00    +0.000 A 
ATOM      6  C   UNL     1      31.503  46.677  62.053  0.00  0.00    +0.000 A 
ATOM      7  C   UNL     1      30.144  46.898  62.164  0.00  0.00    +0.000 A 
ATOM      8  O   UNL     1      29.681  48.221  62.035  0.00  0.00    +0.000 OA
ATOM      9  C   UNL     1      29.265  45.860  62.394  0.00  0.00    +0.000 A 
ATOM     10  O   UNL     1      27.893  46.115  62.503  0.00  0.00    +0.000 OA
BRANCH   3  12
ATOM     11  C   UNL     1      28.630  42.559  61.716  0.00  0.00    +0.000 C 
ATOM     12  O   UNL     1      28.835  43.497  62.756  0.00  0.00    +0.000 OA
ENDBRANCH   3  12
ENDBRANCH   1   6
BRANCH   2  13
ATOM     13  C   UNL     1      34.431  49.050  62.161  0.00  0.00    +0.000 A 
ATOM     14  C   UNL     1      35.247  49.615  63.109  0.00  0.00    +0.000 A 
ATOM     15  C   UNL     1      36.078  50.687  62.820  0.00  0.00    +0.000 A 
ATOM     16  C   UNL     1      36.057  51.171  61.534  0.00  0.00    +0.000 A 
ATOM     17  C   UNL     1      35.254  50.635  60.546  0.00  0.00    +0.000 A 
ATOM     18  C   UNL     1      34.444  49.571  60.884  0.00  0.00    +0.000 A 
BRANCH  15  19
ATOM     19  O   UNL     1      36.895  51.244  63.790  0.00  0.00    +0.000 OA
ATOM     20  C   UNL     1      36.430  51.746  65.007  0.00  0.00    +0.000 C 
ENDBRANCH  15  19
BRANCH  16  21
ATOM     21  O   UNL     1      36.908  52.255  61.270  0.00  0.00    +0.000 OA
ATOM     22  C   UNL     1      36.472  53.594  61.417  0.00  0.00    +0.000 C 
ENDBRANCH  16  21
BRANCH  17  23
ATOM     23  O   UNL     1      35.289  51.183  59.266  0.00  0.00    +0.000 OA
ATOM     24  C   UNL     1      34.246  52.054  58.849  0.00  0.00    +0.000 C 
ENDBRANCH  17  23
ENDBRANCH   2  13
TORSDOF 6
ENDMDL
