MODEL 1
REMARK VINA RESULT:      -7.7      0.000      0.000
REMARK  Name = 
REMARK  5 active torsions:
REMARK  status: ('A' for Active; 'I' for Inactive)
REMARK    1  A    between atoms: C_2  and  C_3
REMARK    2  A    between atoms: C_5  and  O_6
REMARK    3  A    between atoms: O_6  and  C_7
REMARK    4  A    between atoms: C_12  and  C_13
REMARK    5  A    between atoms: C_14  and  C_15
REMARK                            x       y       z     vdW  Elec       q    Type
REMARK                         _______ _______ _______ _____ _____    ______ ____
ROOT
ATOM      1  C   UNL     1      26.411  42.300  61.176  0.00  0.00    +0.000 A 
ATOM      2  C   UNL     1      26.947  41.121  61.865  0.00  0.00    +0.000 A 
ATOM      3  C   UNL     1      28.165  41.217  62.548  0.00  0.00    +0.000 A 
ATOM      4  O   UNL     1      28.617  40.046  63.234  0.00  0.00    +0.000 OA
ATOM      5  C   UNL     1      28.838  42.366  62.564  0.00  0.00    +0.000 A 
ATOM      6  C   UNL     1      28.325  43.555  61.877  0.00  0.00    +0.000 A 
ATOM      7  C   UNL     1      27.228  43.369  61.300  0.00  0.00    +0.000 A 
ENDROOT
BRANCH   6   8
ATOM      8  C   UNL     1      29.388  44.481  62.217  0.00  0.00    +0.000 C 
ATOM      9  C   UNL     1      29.355  45.556  62.575  0.00  0.00    +0.000 C 
BRANCH   9  10
ATOM     10  C   UNL     1      28.313  46.424  62.838  0.00  0.00    +0.000 A 
ATOM     11  C   UNL     1      27.785  46.154  64.130  0.00  0.00    +0.000 A 
ATOM     12  C   UNL     1      26.748  46.852  64.633  0.00  0.00    +0.000 A 
ATOM     13  C   UNL     1      26.148  47.859  63.924  0.00  0.00    +0.000 A 
ATOM     14  O   UNL     1      25.080  48.550  64.444  0.00  0.00    +0.000 OA
ATOM     15  C   UNL     1      26.643  48.160  62.621  0.00  0.00    +0.000 A 
ATOM     16  C   UNL     1      27.726  47.416  62.138  0.00  0.00    +0.000 A 
ENDBRANCH   9  10
ENDBRANCH   6   8
BRANCH   1  17
ATOM     17  O   UNL     1      25.302  42.100  60.549  0.00  0.00    +0.000 OA
BRANCH  17  20
ATOM     18  C   UNL     1      21.933  42.050  60.053  0.00  0.00    +0.000 C 
ATOM     19  O   UNL     1      23.198  41.637  60.843  0.00  0.00    +0.000 OA
ATOM     20  C   UNL     1      24.281  41.882  59.762  0.00  0.00    +0.000 C 
ATOM     21  C   UNL     1      23.609  42.774  58.722  0.00  0.00    +0.000 C 
ATOM     22  O   UNL     1      24.750  42.990  57.803  0.00  0.00    +0.000 OA
ATOM     23  C   UNL     1      22.992  41.425  57.775  0.00  0.00    +0.000 C 
ATOM     24  O   UNL     1      21.920  42.360  57.278  0.00  0.00    +0.000 OA
ATOM     25  C   UNL     1      21.997  40.769  58.966  0.00  0.00    +0.000 C 
ATOM     26  O   UNL     1      23.125  39.923  59.569  0.00  0.00    +0.000 OA
BRANCH  18  28
ATOM     27  O   UNL     1      21.799  41.296  62.252  0.00  0.00    +0.000 OA
ATOM     28  C   UNL     1      20.967  41.237  61.087  0.00  0.00    +0.000 C 
ENDBRANCH  18  28
ENDBRANCH  17  20
ENDBRANCH   1  17
TORSDOF 5
ENDMDL
MODEL 2
REMARK VINA RESULT:      -7.6     14.395     17.999
REMARK  Name = 
REMARK  5 active torsions:
REMARK  status: ('A' for Active; 'I' for Inactive)
REMARK    1  A    between atoms: C_2  and  C_3
REMARK    2  A    between atoms: C_5  and  O_6
REMARK    3  A    between atoms: O_6  and  C_7
REMARK    4  A    between atoms: C_12  and  C_13
REMARK    5  A    between atoms: C_14  and  C_15
REMARK                            x       y       z     vdW  Elec       q    Type
REMARK                         _______ _______ _______ _____ _____    ______ ____
ROOT
ATOM      1  C   UNL     1      34.952  58.090  56.711  0.00  0.00    +0.000 A 
ATOM      2  C   UNL     1      35.844  57.954  55.554  0.00  0.00    +0.000 A 
ATOM      3  C   UNL     1      35.536  58.626  54.365  0.00  0.00    +0.000 A 
ATOM      4  O   UNL     1      36.463  58.488  53.284  0.00  0.00    +0.000 OA
ATOM      5  C   UNL     1      34.437  59.374  54.280  0.00  0.00    +0.000 A 
ATOM      6  C   UNL     1      33.529  59.519  55.422  0.00  0.00    +0.000 A 
ATOM      7  C   UNL     1      33.894  58.884  56.439  0.00  0.00    +0.000 A 
ENDROOT
BRANCH   6   8
ATOM      8  C   UNL     1      32.558  60.412  54.818  0.00  0.00    +0.000 C 
ATOM      9  C   UNL     1      31.577  60.822  55.211  0.00  0.00    +0.000 C 
BRANCH   9  10
ATOM     10  C   UNL     1      30.903  60.656  56.404  0.00  0.00    +0.000 A 
ATOM     11  C   UNL     1      29.812  59.763  56.214  0.00  0.00    +0.000 A 
ATOM     12  C   UNL     1      28.979  59.437  57.221  0.00  0.00    +0.000 A 
ATOM     13  C   UNL     1      29.139  59.949  58.481  0.00  0.00    +0.000 A 
ATOM     14  O   UNL     1      28.269  59.619  59.494  0.00  0.00    +0.000 OA
ATOM     15  C   UNL     1      30.217  60.852  58.716  0.00  0.00    +0.000 A 
ATOM     16  C   UNL     1      31.064  61.160  57.644  0.00  0.00    +0.000 A 
ENDBRANCH   9  10
ENDBRANCH   6   8
BRANCH   1  17
ATOM     17  O   UNL     1      35.305  57.406  57.746  0.00  0.00    +0.000 OA
BRANCH  17  20
ATOM     18  C   UNL     1      35.990  54.245  58.812  0.00  0.00    +0.000 C 
ATOM     19  O   UNL     1      35.114  55.260  58.040  0.00  0.00    +0.000 OA
ATOM     20  C   UNL     1      35.564  56.576  58.723  0.00  0.00    +0.000 C 
ATOM     21  C   UNL     1      36.874  56.232  59.424  0.00  0.00    +0.000 C 
ATOM     22  O   UNL     1      37.227  57.565  59.963  0.00  0.00    +0.000 OA
ATOM     23  C   UNL     1      36.092  55.740  60.922  0.00  0.00    +0.000 C 
ATOM     24  O   UNL     1      37.306  54.887  61.189  0.00  0.00    +0.000 OA
ATOM     25  C   UNL     1      35.212  54.452  60.288  0.00  0.00    +0.000 C 
ATOM     26  O   UNL     1      34.032  55.342  59.880  0.00  0.00    +0.000 OA
BRANCH  18  28
ATOM     27  O   UNL     1      36.026  52.084  57.945  0.00  0.00    +0.000 OA
ATOM     28  C   UNL     1      35.019  53.008  58.376  0.00  0.00    +0.000 C 
ENDBRANCH  18  28
ENDBRANCH  17  20
ENDBRANCH   1  17
TORSDOF 5
ENDMDL
MODEL 3
REMARK VINA RESULT:      -7.6     14.308     18.138
REMARK  Name = 
REMARK  5 active torsions:
REMARK  status: ('A' for Active; 'I' for Inactive)
REMARK    1  A    between atoms: C_2  and  C_3
REMARK    2  A    between atoms: C_5  and  O_6
REMARK    3  A    between atoms: O_6  and  C_7
REMARK    4  A    between atoms: C_12  and  C_13
REMARK    5  A    between atoms: C_14  and  C_15
REMARK                            x       y       z     vdW  Elec       q    Type
REMARK                         _______ _______ _______ _____ _____    ______ ____
ROOT
ATOM      1  C   UNL     1      35.743  57.387  57.524  0.00  0.00    +0.000 A 
ATOM      2  C   UNL     1      36.717  58.355  58.039  0.00  0.00    +0.000 A 
ATOM      3  C   UNL     1      36.965  59.531  57.321  0.00  0.00    +0.000 A 
ATOM      4  O   UNL     1      37.895  60.455  57.892  0.00  0.00    +0.000 OA
ATOM      5  C   UNL     1      36.330  59.764  56.173  0.00  0.00    +0.000 A 
ATOM      6  C   UNL     1      35.357  58.807  55.637  0.00  0.00    +0.000 A 
ATOM      7  C   UNL     1      35.202  57.791  56.354  0.00  0.00    +0.000 A 
ENDROOT
BRANCH   6   8
ATOM      8  C   UNL     1      34.972  59.533  54.441  0.00  0.00    +0.000 C 
ATOM      9  C   UNL     1      34.141  60.281  54.258  0.00  0.00    +0.000 C 
BRANCH   9  10
ATOM     10  C   UNL     1      33.163  60.814  55.075  0.00  0.00    +0.000 A 
ATOM     11  C   UNL     1      31.939  60.119  54.868  0.00  0.00    +0.000 A 
ATOM     12  C   UNL     1      30.816  60.448  55.533  0.00  0.00    +0.000 A 
ATOM     13  C   UNL     1      30.793  61.470  56.444  0.00  0.00    +0.000 A 
ATOM     14  O   UNL     1      29.632  61.804  57.103  0.00  0.00    +0.000 OA
ATOM     15  C   UNL     1      31.996  62.197  56.680  0.00  0.00    +0.000 A 
ATOM     16  C   UNL     1      33.144  61.820  55.973  0.00  0.00    +0.000 A 
ENDBRANCH   9  10
ENDBRANCH   6   8
BRANCH   1  17
ATOM     17  O   UNL     1      35.611  56.322  58.241  0.00  0.00    +0.000 OA
BRANCH  17  20
ATOM     18  C   UNL     1      36.839  53.529  59.755  0.00  0.00    +0.000 C 
ATOM     19  O   UNL     1      36.791  54.527  58.572  0.00  0.00    +0.000 OA
ATOM     20  C   UNL     1      35.402  55.168  58.817  0.00  0.00    +0.000 C 
ATOM     21  C   UNL     1      35.053  54.818  60.261  0.00  0.00    +0.000 C 
ATOM     22  O   UNL     1      33.765  55.537  60.388  0.00  0.00    +0.000 OA
ATOM     23  C   UNL     1      34.261  53.304  59.838  0.00  0.00    +0.000 C 
ATOM     24  O   UNL     1      34.576  52.834  61.235  0.00  0.00    +0.000 OA
ATOM     25  C   UNL     1      35.609  52.538  59.178  0.00  0.00    +0.000 C 
ATOM     26  O   UNL     1      35.377  53.133  57.784  0.00  0.00    +0.000 OA
BRANCH  18  28
ATOM     27  O   UNL     1      38.723  53.723  58.401  0.00  0.00    +0.000 OA
ATOM     28  C   UNL     1      38.005  52.652  59.026  0.00  0.00    +0.000 C 
ENDBRANCH  18  28
ENDBRANCH  17  20
ENDBRANCH   1  17
TORSDOF 5
ENDMDL
MODEL 4
REMARK VINA RESULT:      -7.5     13.962     17.742
REMARK  Name = 
REMARK  5 active torsions:
REMARK  status: ('A' for Active; 'I' for Inactive)
REMARK    1  A    between atoms: C_2  and  C_3
REMARK    2  A    between atoms: C_5  and  O_6
REMARK    3  A    between atoms: O_6  and  C_7
REMARK    4  A    between atoms: C_12  and  C_13
REMARK    5  A    between atoms: C_14  and  C_15
REMARK                            x       y       z     vdW  Elec       q    Type
REMARK                         _______ _______ _______ _____ _____    ______ ____
ROOT
ATOM      1  C   UNL     1      35.872  57.115  57.360  0.00  0.00    +0.000 A 
ATOM      2  C   UNL     1      36.532  56.922  56.064  0.00  0.00    +0.000 A 
ATOM      3  C   UNL     1      36.660  58.006  55.188  0.00  0.00    +0.000 A 
ATOM      4  O   UNL     1      37.347  57.768  53.956  0.00  0.00    +0.000 OA
ATOM      5  C   UNL     1      36.176  59.201  55.523  0.00  0.00    +0.000 A 
ATOM      6  C   UNL     1      35.508  59.415  56.810  0.00  0.00    +0.000 A 
ATOM      7  C   UNL     1      35.448  58.386  57.524  0.00  0.00    +0.000 A 
ENDROOT
BRANCH   6   8
ATOM      8  C   UNL     1      35.213  60.829  56.672  0.00  0.00    +0.000 C 
ATOM      9  C   UNL     1      34.237  61.371  56.479  0.00  0.00    +0.000 C 
BRANCH   9  10
ATOM     10  C   UNL     1      32.939  60.931  56.302  0.00  0.00    +0.000 A 
ATOM     11  C   UNL     1      32.324  60.744  57.571  0.00  0.00    +0.000 A 
ATOM     12  C   UNL     1      31.055  60.306  57.686  0.00  0.00    +0.000 A 
ATOM     13  C   UNL     1      30.292  60.017  56.586  0.00  0.00    +0.000 A 
ATOM     14  O   UNL     1      29.004  59.554  56.721  0.00  0.00    +0.000 OA
ATOM     15  C   UNL     1      30.871  60.186  55.294  0.00  0.00    +0.000 A 
ATOM     16  C   UNL     1      32.190  60.649  55.217  0.00  0.00    +0.000 A 
ENDBRANCH   9  10
ENDBRANCH   6   8
BRANCH   1  17
ATOM     17  O   UNL     1      35.776  56.048  58.079  0.00  0.00    +0.000 OA
BRANCH  17  20
ATOM     18  C   UNL     1      36.869  53.311  59.787  0.00  0.00    +0.000 C 
ATOM     19  O   UNL     1      36.872  54.227  58.539  0.00  0.00    +0.000 OA
ATOM     20  C   UNL     1      35.512  54.946  58.731  0.00  0.00    +0.000 C 
ATOM     21  C   UNL     1      35.142  54.711  60.192  0.00  0.00    +0.000 C 
ATOM     22  O   UNL     1      33.888  55.495  60.262  0.00  0.00    +0.000 OA
ATOM     23  C   UNL     1      34.284  53.209  59.866  0.00  0.00    +0.000 C 
ATOM     24  O   UNL     1      34.571  52.821  61.294  0.00  0.00    +0.000 OA
ATOM     25  C   UNL     1      35.598  52.340  59.269  0.00  0.00    +0.000 C 
ATOM     26  O   UNL     1      35.398  52.849  57.837  0.00  0.00    +0.000 OA
BRANCH  18  28
ATOM     27  O   UNL     1      38.732  53.319  58.390  0.00  0.00    +0.000 OA
ATOM     28  C   UNL     1      37.997  52.334  59.127  0.00  0.00    +0.000 C 
ENDBRANCH  18  28
ENDBRANCH  17  20
ENDBRANCH   1  17
TORSDOF 5
ENDMDL
MODEL 5
REMARK VINA RESULT:      -7.3     15.976     18.881
REMARK  Name = 
REMARK  5 active torsions:
REMARK  status: ('A' for Active; 'I' for Inactive)
REMARK    1  A    between atoms: C_2  and  C_3
REMARK    2  A    between atoms: C_5  and  O_6
REMARK    3  A    between atoms: O_6  and  C_7
REMARK    4  A    between atoms: C_12  and  C_13
REMARK    5  A    between atoms: C_14  and  C_15
REMARK                            x       y       z     vdW  Elec       q    Type
REMARK                         _______ _______ _______ _____ _____    ______ ____
ROOT
ATOM      1  C   UNL     1      35.402  57.349  58.023  0.00  0.00    +0.000 A 
ATOM      2  C   UNL     1      34.651  58.171  58.978  0.00  0.00    +0.000 A 
ATOM      3  C   UNL     1      34.277  57.625  60.212  0.00  0.00    +0.000 A 
ATOM      4  O   UNL     1      33.582  58.487  61.118  0.00  0.00    +0.000 OA
ATOM      5  C   UNL     1      34.589  56.366  60.512  0.00  0.00    +0.000 A 
ATOM      6  C   UNL     1      35.333  55.524  59.570  0.00  0.00    +0.000 A 
ATOM      7  C   UNL     1      35.625  56.105  58.498  0.00  0.00    +0.000 A 
ENDROOT
BRANCH   6   8
ATOM      8  C   UNL     1      35.416  54.318  60.372  0.00  0.00    +0.000 C 
ATOM      9  C   UNL     1      36.309  53.707  60.709  0.00  0.00    +0.000 C 
BRANCH   9  10
ATOM     10  C   UNL     1      37.668  53.846  60.512  0.00  0.00    +0.000 A 
ATOM     11  C   UNL     1      38.059  53.113  59.357  0.00  0.00    +0.000 A 
ATOM     12  C   UNL     1      39.340  53.070  58.945  0.00  0.00    +0.000 A 
ATOM     13  C   UNL     1      40.335  53.730  59.617  0.00  0.00    +0.000 A 
ATOM     14  O   UNL     1      41.641  53.661  59.192  0.00  0.00    +0.000 OA
ATOM     15  C   UNL     1      39.989  54.473  60.783  0.00  0.00    +0.000 A 
ATOM     16  C   UNL     1      38.645  54.498  61.175  0.00  0.00    +0.000 A 
ENDBRANCH   9  10
ENDBRANCH   6   8
BRANCH   1  17
ATOM     17  O   UNL     1      35.669  57.932  56.904  0.00  0.00    +0.000 OA
BRANCH  17  20
ATOM     18  C   UNL     1      36.093  60.651  54.897  0.00  0.00    +0.000 C 
ATOM     19  O   UNL     1      35.348  59.893  56.023  0.00  0.00    +0.000 OA
ATOM     20  C   UNL     1      35.788  58.442  55.706  0.00  0.00    +0.000 C 
ATOM     21  C   UNL     1      37.004  58.586  54.795  0.00  0.00    +0.000 C 
ATOM     22  O   UNL     1      37.365  57.160  54.631  0.00  0.00    +0.000 OA
ATOM     23  C   UNL     1      36.053  58.603  53.315  0.00  0.00    +0.000 C 
ATOM     24  O   UNL     1      37.192  59.360  52.680  0.00  0.00    +0.000 OA
ATOM     25  C   UNL     1      35.181  60.007  53.640  0.00  0.00    +0.000 C 
ATOM     26  O   UNL     1      34.091  59.257  54.416  0.00  0.00    +0.000 OA
BRANCH  18  28
ATOM     27  O   UNL     1      35.142  62.410  53.704  0.00  0.00    +0.000 OA
ATOM     28  C   UNL     1      35.112  61.945  55.059  0.00  0.00    +0.000 C 
ENDBRANCH  18  28
ENDBRANCH  17  20
ENDBRANCH   1  17
TORSDOF 5
ENDMDL
MODEL 6
REMARK VINA RESULT:      -7.2     14.356     18.259
REMARK  Name = 
REMARK  5 active torsions:
REMARK  status: ('A' for Active; 'I' for Inactive)
REMARK    1  A    between atoms: C_2  and  C_3
REMARK    2  A    between atoms: C_5  and  O_6
REMARK    3  A    between atoms: O_6  and  C_7
REMARK    4  A    between atoms: C_12  and  C_13
REMARK    5  A    between atoms: C_14  and  C_15
REMARK                            x       y       z     vdW  Elec       q    Type
REMARK                         _______ _______ _______ _____ _____    ______ ____
ROOT
ATOM      1  C   UNL     1      35.340  56.474  58.933  0.00  0.00    +0.000 A 
ATOM      2  C   UNL     1      34.186  55.594  59.147  0.00  0.00    +0.000 A 
ATOM      3  C   UNL     1      34.273  54.559  60.085  0.00  0.00    +0.000 A 
ATOM      4  O   UNL     1      33.103  53.759  60.278  0.00  0.00    +0.000 OA
ATOM      5  C   UNL     1      35.398  54.366  60.771  0.00  0.00    +0.000 A 
ATOM      6  C   UNL     1      36.566  55.229  60.569  0.00  0.00    +0.000 A 
ATOM      7  C   UNL     1      36.387  56.128  59.713  0.00  0.00    +0.000 A 
ENDROOT
BRANCH   6   8
ATOM      8  C   UNL     1      37.459  54.619  61.536  0.00  0.00    +0.000 C 
ATOM      9  C   UNL     1      38.382  53.976  61.395  0.00  0.00    +0.000 C 
BRANCH   9  10
ATOM     10  C   UNL     1      39.041  53.514  60.273  0.00  0.00    +0.000 A 
ATOM     11  C   UNL     1      40.438  53.739  60.414  0.00  0.00    +0.000 A 
ATOM     12  C   UNL     1      41.313  53.391  59.451  0.00  0.00    +0.000 A 
ATOM     13  C   UNL     1      40.903  52.802  58.285  0.00  0.00    +0.000 A 
ATOM     14  O   UNL     1      41.808  52.469  57.304  0.00  0.00    +0.000 OA
ATOM     15  C   UNL     1      39.510  52.562  58.099  0.00  0.00    +0.000 A 
ATOM     16  C   UNL     1      38.633  52.932  59.126  0.00  0.00    +0.000 A 
ENDBRANCH   9  10
ENDBRANCH   6   8
BRANCH   1  17
ATOM     17  O   UNL     1      35.170  57.375  58.026  0.00  0.00    +0.000 OA
BRANCH  17  20
ATOM     18  C   UNL     1      35.711  58.534  54.869  0.00  0.00    +0.000 C 
ATOM     19  O   UNL     1      36.184  57.808  56.152  0.00  0.00    +0.000 OA
ATOM     20  C   UNL     1      35.154  58.362  57.168  0.00  0.00    +0.000 C 
ATOM     21  C   UNL     1      34.023  58.930  56.318  0.00  0.00    +0.000 C 
ATOM     22  O   UNL     1      33.091  59.350  57.388  0.00  0.00    +0.000 OA
ATOM     23  C   UNL     1      34.744  60.532  56.200  0.00  0.00    +0.000 C 
ATOM     24  O   UNL     1      33.962  60.709  54.924  0.00  0.00    +0.000 OA
ATOM     25  C   UNL     1      36.146  60.073  55.387  0.00  0.00    +0.000 C 
ATOM     26  O   UNL     1      36.899  59.750  56.683  0.00  0.00    +0.000 OA
BRANCH  18  28
ATOM     27  O   UNL     1      37.455  56.999  54.708  0.00  0.00    +0.000 OA
ATOM     28  C   UNL     1      37.149  58.279  54.141  0.00  0.00    +0.000 C 
ENDBRANCH  18  28
ENDBRANCH  17  20
ENDBRANCH   1  17
TORSDOF 5
ENDMDL
MODEL 7
REMARK VINA RESULT:      -7.1     13.532     17.209
REMARK  Name = 
REMARK  5 active torsions:
REMARK  status: ('A' for Active; 'I' for Inactive)
REMARK    1  A    between atoms: C_2  and  C_3
REMARK    2  A    between atoms: C_5  and  O_6
REMARK    3  A    between atoms: O_6  and  C_7
REMARK    4  A    between atoms: C_12  and  C_13
REMARK    5  A    between atoms: C_14  and  C_15
REMARK                            x       y       z     vdW  Elec       q    Type
REMARK                         _______ _______ _______ _____ _____    ______ ____
ROOT
ATOM      1  C   UNL     1      36.135  56.417  58.189  0.00  0.00    +0.000 A 
ATOM      2  C   UNL     1      36.693  57.436  59.084  0.00  0.00    +0.000 A 
ATOM      3  C   UNL     1      36.805  58.758  58.639  0.00  0.00    +0.000 A 
ATOM      4  O   UNL     1      37.320  59.715  59.570  0.00  0.00    +0.000 OA
ATOM      5  C   UNL     1      36.418  59.088  57.408  0.00  0.00    +0.000 A 
ATOM      6  C   UNL     1      35.862  58.085  56.494  0.00  0.00    +0.000 A 
ATOM      7  C   UNL     1      35.799  56.934  56.987  0.00  0.00    +0.000 A 
ENDROOT
BRANCH   6   8
ATOM      8  C   UNL     1      35.601  58.947  55.356  0.00  0.00    +0.000 C 
ATOM      9  C   UNL     1      34.686  59.554  55.076  0.00  0.00    +0.000 C 
BRANCH   9  10
ATOM     10  C   UNL     1      33.458  59.735  55.683  0.00  0.00    +0.000 A 
ATOM     11  C   UNL     1      32.514  60.188  54.721  0.00  0.00    +0.000 A 
ATOM     12  C   UNL     1      31.236  60.455  55.053  0.00  0.00    +0.000 A 
ATOM     13  C   UNL     1      30.780  60.305  56.336  0.00  0.00    +0.000 A 
ATOM     14  O   UNL     1      29.477  60.599  56.662  0.00  0.00    +0.000 OA
ATOM     15  C   UNL     1      31.695  59.857  57.334  0.00  0.00    +0.000 A 
ATOM     16  C   UNL     1      33.012  59.584  56.947  0.00  0.00    +0.000 A 
ENDBRANCH   9  10
ENDBRANCH   6   8
BRANCH   1  17
ATOM     17  O   UNL     1      36.105  55.225  58.680  0.00  0.00    +0.000 OA
BRANCH  17  20
ATOM     18  C   UNL     1      35.097  51.973  58.614  0.00  0.00    +0.000 C 
ATOM     19  O   UNL     1      34.809  53.483  58.793  0.00  0.00    +0.000 OA
ATOM     20  C   UNL     1      36.240  53.994  59.099  0.00  0.00    +0.000 C 
ATOM     21  C   UNL     1      37.168  52.875  58.637  0.00  0.00    +0.000 C 
ATOM     22  O   UNL     1      38.478  53.508  58.911  0.00  0.00    +0.000 OA
ATOM     23  C   UNL     1      37.150  52.045  60.189  0.00  0.00    +0.000 C 
ATOM     24  O   UNL     1      37.486  50.784  59.435  0.00  0.00    +0.000 OA
ATOM     25  C   UNL     1      35.503  51.696  60.223  0.00  0.00    +0.000 C 
ATOM     26  O   UNL     1      35.139  53.043  60.858  0.00  0.00    +0.000 OA
BRANCH  18  28
ATOM     27  O   UNL     1      32.944  52.844  58.450  0.00  0.00    +0.000 OA
ATOM     28  C   UNL     1      33.527  51.600  58.857  0.00  0.00    +0.000 C 
ENDBRANCH  18  28
ENDBRANCH  17  20
ENDBRANCH   1  17
TORSDOF 5
ENDMDL
MODEL 8
REMARK VINA RESULT:      -7.1      1.686      2.780
REMARK  Name = 
REMARK  5 active torsions:
REMARK  status: ('A' for Active; 'I' for Inactive)
REMARK    1  A    between atoms: C_2  and  C_3
REMARK    2  A    between atoms: C_5  and  O_6
REMARK    3  A    between atoms: O_6  and  C_7
REMARK    4  A    between atoms: C_12  and  C_13
REMARK    5  A    between atoms: C_14  and  C_15
REMARK                            x       y       z     vdW  Elec       q    Type
REMARK                         _______ _______ _______ _____ _____    ______ ____
ROOT
ATOM      1  C   UNL     1      27.806  42.287  60.914  0.00  0.00    +0.000 A 
ATOM      2  C   UNL     1      28.842  41.649  60.095  0.00  0.00    +0.000 A 
ATOM      3  C   UNL     1      30.159  42.117  60.161  0.00  0.00    +0.000 A 
ATOM      4  O   UNL     1      31.133  41.430  59.370  0.00  0.00    +0.000 OA
ATOM      5  C   UNL     1      30.469  43.143  60.952  0.00  0.00    +0.000 A 
ATOM      6  C   UNL     1      29.449  43.800  61.776  0.00  0.00    +0.000 A 
ATOM      7  C   UNL     1      28.304  43.305  61.649  0.00  0.00    +0.000 A 
ENDROOT
BRANCH   6   8
ATOM      8  C   UNL     1      30.293  44.786  62.424  0.00  0.00    +0.000 C 
ATOM      9  C   UNL     1      30.048  45.801  62.866  0.00  0.00    +0.000 C 
BRANCH   9  10
ATOM     10  C   UNL     1      28.872  46.515  62.980  0.00  0.00    +0.000 A 
ATOM     11  C   UNL     1      28.196  46.130  64.170  0.00  0.00    +0.000 A 
ATOM     12  C   UNL     1      27.010  46.668  64.518  0.00  0.00    +0.000 A 
ATOM     13  C   UNL     1      26.395  47.613  63.742  0.00  0.00    +0.000 A 
ATOM     14  O   UNL     1      25.176  48.140  64.103  0.00  0.00    +0.000 OA
ATOM     15  C   UNL     1      27.035  48.025  62.537  0.00  0.00    +0.000 A 
ATOM     16  C   UNL     1      28.268  47.447  62.214  0.00  0.00    +0.000 A 
ENDBRANCH   9  10
ENDBRANCH   6   8
BRANCH   1  17
ATOM     17  O   UNL     1      26.621  41.804  60.756  0.00  0.00    +0.000 OA
BRANCH  17  20
ATOM     18  C   UNL     1      24.359  41.023  58.332  0.00  0.00    +0.000 C 
ATOM     19  O   UNL     1      25.317  42.019  59.029  0.00  0.00    +0.000 OA
ATOM     20  C   UNL     1      25.447  41.341  60.416  0.00  0.00    +0.000 C 
ATOM     21  C   UNL     1      24.958  39.911  60.206  0.00  0.00    +0.000 C 
ATOM     22  O   UNL     1      25.199  39.362  61.559  0.00  0.00    +0.000 OA
ATOM     23  C   UNL     1      23.279  40.295  60.569  0.00  0.00    +0.000 C 
ATOM     24  O   UNL     1      22.901  39.099  59.733  0.00  0.00    +0.000 OA
ATOM     25  C   UNL     1      23.030  41.375  59.300  0.00  0.00    +0.000 C 
ATOM     26  O   UNL     1      23.553  42.574  60.100  0.00  0.00    +0.000 OA
BRANCH  18  28
ATOM     27  O   UNL     1      25.192  42.841  57.138  0.00  0.00    +0.000 OA
ATOM     28  C   UNL     1      23.946  42.136  57.212  0.00  0.00    +0.000 C 
ENDBRANCH  18  28
ENDBRANCH  17  20
ENDBRANCH   1  17
TORSDOF 5
ENDMDL
MODEL 9
REMARK VINA RESULT:      -7.1     13.659     17.517
REMARK  Name = 
REMARK  5 active torsions:
REMARK  status: ('A' for Active; 'I' for Inactive)
REMARK    1  A    between atoms: C_2  and  C_3
REMARK    2  A    between atoms: C_5  and  O_6
REMARK    3  A    between atoms: O_6  and  C_7
REMARK    4  A    between atoms: C_12  and  C_13
REMARK    5  A    between atoms: C_14  and  C_15
REMARK                            x       y       z     vdW  Elec       q    Type
REMARK                         _______ _______ _______ _____ _____    ______ ____
ROOT
ATOM      1  C   UNL     1      36.446  53.674  59.889  0.00  0.00    +0.000 A 
ATOM      2  C   UNL     1      35.273  52.896  59.476  0.00  0.00    +0.000 A 
ATOM      3  C   UNL     1      34.076  53.560  59.180  0.00  0.00    +0.000 A 
ATOM      4  O   UNL     1      32.978  52.753  58.745  0.00  0.00    +0.000 OA
ATOM      5  C   UNL     1      33.999  54.885  59.284  0.00  0.00    +0.000 A 
ATOM      6  C   UNL     1      35.158  55.682  59.700  0.00  0.00    +0.000 A 
ATOM      7  C   UNL     1      36.181  54.997  59.937  0.00  0.00    +0.000 A 
ENDROOT
BRANCH   6   8
ATOM      8  C   UNL     1      34.556  56.999  59.626  0.00  0.00    +0.000 C 
ATOM      9  C   UNL     1      34.537  57.765  58.790  0.00  0.00    +0.000 C 
BRANCH   9  10
ATOM     10  C   UNL     1      35.063  57.770  57.513  0.00  0.00    +0.000 A 
ATOM     11  C   UNL     1      34.303  58.647  56.690  0.00  0.00    +0.000 A 
ATOM     12  C   UNL     1      34.596  58.830  55.388  0.00  0.00    +0.000 A 
ATOM     13  C   UNL     1      35.641  58.179  54.788  0.00  0.00    +0.000 A 
ATOM     14  O   UNL     1      35.916  58.363  53.453  0.00  0.00    +0.000 OA
ATOM     15  C   UNL     1      36.426  57.286  55.575  0.00  0.00    +0.000 A 
ATOM     16  C   UNL     1      36.093  57.129  56.925  0.00  0.00    +0.000 A 
ENDBRANCH   9  10
ENDBRANCH   6   8
BRANCH   1  17
ATOM     17  O   UNL     1      37.488  52.967  60.170  0.00  0.00    +0.000 OA
BRANCH  17  20
ATOM     18  C   UNL     1      40.824  52.699  59.536  0.00  0.00    +0.000 C 
ATOM     19  O   UNL     1      39.347  52.709  59.072  0.00  0.00    +0.000 OA
ATOM     20  C   UNL     1      38.642  52.403  60.417  0.00  0.00    +0.000 C 
ATOM     21  C   UNL     1      39.688  52.692  61.489  0.00  0.00    +0.000 C 
ATOM     22  O   UNL     1      38.880  52.438  62.703  0.00  0.00    +0.000 OA
ATOM     23  C   UNL     1      40.339  51.057  61.477  0.00  0.00    +0.000 C 
ATOM     24  O   UNL     1      41.627  51.645  61.993  0.00  0.00    +0.000 OA
ATOM     25  C   UNL     1      40.872  51.053  59.879  0.00  0.00    +0.000 C 
ATOM     26  O   UNL     1      39.515  50.595  59.333  0.00  0.00    +0.000 OA
BRANCH  18  28
ATOM     27  O   UNL     1      42.550  51.754  58.291  0.00  0.00    +0.000 OA
ATOM     28  C   UNL     1      41.349  52.482  58.006  0.00  0.00    +0.000 C 
ENDBRANCH  18  28
ENDBRANCH  17  20
ENDBRANCH   1  17
TORSDOF 5
ENDMDL
MODEL 10
REMARK VINA RESULT:      -7.1     13.879     17.505
REMARK  Name = 
REMARK  5 active torsions:
REMARK  status: ('A' for Active; 'I' for Inactive)
REMARK    1  A    between atoms: C_2  and  C_3
REMARK    2  A    between atoms: C_5  and  O_6
REMARK    3  A    between atoms: O_6  and  C_7
REMARK    4  A    between atoms: C_12  and  C_13
REMARK    5  A    between atoms: C_14  and  C_15
REMARK                            x       y       z     vdW  Elec       q    Type
REMARK                         _______ _______ _______ _____ _____    ______ ____
ROOT
ATOM      1  C   UNL     1      36.751  53.987  59.375  0.00  0.00    +0.000 A 
ATOM      2  C   UNL     1      35.574  53.129  59.195  0.00  0.00    +0.000 A 
ATOM      3  C   UNL     1      34.309  53.714  59.067  0.00  0.00    +0.000 A 
ATOM      4  O   UNL     1      33.205  52.829  58.854  0.00  0.00    +0.000 OA
ATOM      5  C   UNL     1      34.171  55.037  59.120  0.00  0.00    +0.000 A 
ATOM      6  C   UNL     1      35.333  55.913  59.305  0.00  0.00    +0.000 A 
ATOM      7  C   UNL     1      36.419  55.295  59.405  0.00  0.00    +0.000 A 
ENDROOT
BRANCH   6   8
ATOM      8  C   UNL     1      34.650  57.193  59.269  0.00  0.00    +0.000 C 
ATOM      9  C   UNL     1      34.541  57.956  58.438  0.00  0.00    +0.000 C 
BRANCH   9  10
ATOM     10  C   UNL     1      34.995  57.993  57.134  0.00  0.00    +0.000 A 
ATOM     11  C   UNL     1      34.155  58.843  56.363  0.00  0.00    +0.000 A 
ATOM     12  C   UNL     1      34.368  59.048  55.048  0.00  0.00    +0.000 A 
ATOM     13  C   UNL     1      35.405  58.446  54.386  0.00  0.00    +0.000 A 
ATOM     14  O   UNL     1      35.599  58.652  53.040  0.00  0.00    +0.000 OA
ATOM     15  C   UNL     1      36.270  57.582  55.120  0.00  0.00    +0.000 A 
ATOM     16  C   UNL     1      36.018  57.401  56.485  0.00  0.00    +0.000 A 
ENDBRANCH   9  10
ENDBRANCH   6   8
BRANCH   1  17
ATOM     17  O   UNL     1      37.864  53.351  59.517  0.00  0.00    +0.000 OA
BRANCH  17  20
ATOM     18  C   UNL     1      39.959  51.036  60.878  0.00  0.00    +0.000 C 
ATOM     19  O   UNL     1      38.862  52.120  61.006  0.00  0.00    +0.000 OA
ATOM     20  C   UNL     1      39.072  52.873  59.667  0.00  0.00    +0.000 C 
ATOM     21  C   UNL     1      39.886  51.919  58.799  0.00  0.00    +0.000 C 
ATOM     22  O   UNL     1      39.952  52.710  57.550  0.00  0.00    +0.000 OA
ATOM     23  C   UNL     1      41.439  52.525  59.364  0.00  0.00    +0.000 C 
ATOM     24  O   UNL     1      42.015  51.182  58.995  0.00  0.00    +0.000 OA
ATOM     25  C   UNL     1      41.254  52.103  60.985  0.00  0.00    +0.000 C 
ATOM     26  O   UNL     1      40.533  53.410  61.336  0.00  0.00    +0.000 OA
BRANCH  18  28
ATOM     27  O   UNL     1      38.531  50.564  62.656  0.00  0.00    +0.000 OA
ATOM     28  C   UNL     1      39.940  50.763  62.487  0.00  0.00    +0.000 C 
ENDBRANCH  18  28
ENDBRANCH  17  20
ENDBRANCH   1  17
TORSDOF 5
ENDMDL
