REMARK  Name = 
REMARK  2 active torsions:
REMARK  status: ('A' for Active; 'I' for Inactive)
REMARK    1  A    between atoms: C_7  and  C_8
REMARK    2  A    between atoms: C_9  and  C_10
REMARK                            x       y       z     vdW  Elec       q    Type
REMARK                         _______ _______ _______ _____ _____    ______ ____
ROOT
ATOM      1  C   UNL     1      -0.973  -1.785  -1.074  0.00  0.00    +0.000 C 
ATOM      2  C   UNL     1       0.232  -2.068  -1.041  0.00  0.00    +0.000 C 
ENDROOT
BRANCH   1   9
ATOM      3  O   UNL     1      -5.180   0.359  -0.587  0.00  0.00    +0.000 OA
ATOM      4  C   UNL     1      -3.788   0.398  -0.359  0.00  0.00    +0.000 A 
ATOM      5  C   UNL     1      -3.241   1.484   0.288  0.00  0.00    +0.000 A 
ATOM      6  C   UNL     1      -1.858   1.526   0.516  0.00  0.00    +0.000 A 
ATOM      7  O   UNL     1      -1.316   2.626   1.169  0.00  0.00    +0.000 OA
ATOM      8  C   UNL     1      -1.121   0.472   0.078  0.00  0.00    +0.000 A 
ATOM      9  C   UNL     1      -1.594  -0.616  -0.558  0.00  0.00    +0.000 A 
ATOM     10  C   UNL     1      -2.985  -0.617  -0.767  0.00  0.00    +0.000 A 
ENDBRANCH   1   9
BRANCH   2  11
ATOM     11  C   UNL     1       1.268  -1.300  -0.486  0.00  0.00    +0.000 A 
ATOM     12  C   UNL     1       2.546  -1.902  -0.609  0.00  0.00    +0.000 A 
ATOM     13  C   UNL     1       3.661  -1.274  -0.115  0.00  0.00    +0.000 A 
ATOM     14  C   UNL     1       3.633  -0.067   0.508  0.00  0.00    +0.000 A 
ATOM     15  O   UNL     1       4.757   0.572   1.008  0.00  0.00    +0.000 OA
ATOM     16  C   UNL     1       2.379   0.538   0.635  0.00  0.00    +0.000 A 
ATOM     17  O   UNL     1       2.310   1.767   1.264  0.00  0.00    +0.000 OA
ATOM     18  C   UNL     1       1.269  -0.112   0.131  0.00  0.00    +0.000 A 
ENDBRANCH   2  11
TORSDOF 2
