REMARK  Name = 
REMARK  7 active torsions:
REMARK  status: ('A' for Active; 'I' for Inactive)
REMARK    1  A    between atoms: O_2  and  C_3
REMARK    2  A    between atoms: C_5  and  C_6
REMARK    3  A    between atoms: C_6  and  C_7
REMARK    4  A    between atoms: C_9  and  C_10
REMARK    5  A    between atoms: C_12  and  O_13
REMARK    6  A    between atoms: C_22  and  O_23
REMARK    7  A    between atoms: C_25  and  O_26
REMARK                            x       y       z     vdW  Elec       q    Type
REMARK                         _______ _______ _______ _____ _____    ______ ____
ROOT
ATOM      1  C   UNL     1       0.278   0.199  -0.150  0.00  0.00    +0.000 C 
ATOM      2  C   UNL     1      -0.476  -0.691   0.484  0.00  0.00    +0.000 C 
ENDROOT
BRANCH   2   3
ATOM      3  C   UNL     1      -1.936  -0.611   0.389  0.00  0.00    +0.000 A 
ATOM      4  C   UNL     1      -2.743  -1.726   0.283  0.00  0.00    +0.000 A 
ATOM      5  C   UNL     1      -4.115  -1.635   0.202  0.00  0.00    +0.000 A 
ATOM      6  C   UNL     1      -4.756  -0.416   0.224  0.00  0.00    +0.000 A 
ATOM      7  C   UNL     1      -3.985   0.713   0.329  0.00  0.00    +0.000 A 
ATOM      8  C   UNL     1      -2.590   0.613   0.410  0.00  0.00    +0.000 A 
ATOM      9  O   UNL     1      -4.856   1.799   0.331  0.00  0.00    +0.000 OA
ATOM     10  C   UNL     1      -6.130   1.359  -0.080  0.00  0.00    +0.000 C 
ATOM     11  O   UNL     1      -6.112  -0.051   0.159  0.00  0.00    +0.000 OA
BRANCH   5  12
ATOM     12  O   UNL     1      -4.895  -2.772   0.096  0.00  0.00    +0.000 OA
ATOM     13  C   UNL     1      -4.293  -4.049   0.068  0.00  0.00    +0.000 C 
ENDBRANCH   5  12
ENDBRANCH   2   3
BRANCH   1  16
ATOM     14  C   UNL     1       3.809   1.227  -0.814  0.00  0.00    +0.000 A 
ATOM     15  C   UNL     1       2.449   1.141  -0.793  0.00  0.00    +0.000 A 
ATOM     16  C   UNL     1       1.735   0.172  -0.092  0.00  0.00    +0.000 A 
ATOM     17  C   UNL     1       2.459  -0.740   0.611  0.00  0.00    +0.000 A 
ATOM     18  C   UNL     1       3.840  -0.697   0.621  0.00  0.00    +0.000 A 
ATOM     19  C   UNL     1       4.516   0.289  -0.094  0.00  0.00    +0.000 A 
BRANCH  14  21
ATOM     20  C   UNL     1       3.703   3.191  -2.275  0.00  0.00    +0.000 C 
ATOM     21  O   UNL     1       4.476   2.232  -1.541  0.00  0.00    +0.000 OA
ENDBRANCH  14  21
BRANCH  18  22
ATOM     22  O   UNL     1       4.625  -1.608   1.326  0.00  0.00    +0.000 OA
ATOM     23  C   UNL     1       3.944  -2.612   2.056  0.00  0.00    +0.000 C 
ENDBRANCH  18  22
BRANCH  19  24
ATOM     24  O   UNL     1       5.893   0.320  -0.073  0.00  0.00    +0.000 OA
ATOM     25  C   UNL     1       6.514   1.098   0.953  0.00  0.00    +0.000 C 
ENDBRANCH  19  24
ENDBRANCH   1  16
BRANCH   1  26
ATOM     26  C   UNL     1      -0.398   1.209  -0.913  0.00  0.00    +0.000 C 
ATOM     27  N   UNL     1      -0.954   2.046  -1.526  0.00  0.00    +0.000 NA
ENDBRANCH   1  26
TORSDOF 7
