MODEL 1
REMARK VINA RESULT:      -5.9      0.000      0.000
REMARK  Name = 
REMARK  7 active torsions:
REMARK  status: ('A' for Active; 'I' for Inactive)
REMARK    1  A    between atoms: O_2  and  C_3
REMARK    2  A    between atoms: C_5  and  C_6
REMARK    3  A    between atoms: C_7  and  C_8
REMARK    4  A    between atoms: C_7  and  C_10
REMARK    5  A    between atoms: C_12  and  O_13
REMARK    6  A    between atoms: C_22  and  O_23
REMARK    7  A    between atoms: C_25  and  O_26
REMARK                            x       y       z     vdW  Elec       q    Type
REMARK                         _______ _______ _______ _____ _____    ______ ____
ROOT
ATOM      1  C   UNL     1      35.078  56.428  60.654  0.00  0.00    +0.000 C 
ATOM      2  C   UNL     1      34.796  57.607  60.211  0.00  0.00    +0.000 C 
ENDROOT
BRANCH   2   3
ATOM      3  C   UNL     1      35.360  58.090  58.966  0.00  0.00    +0.000 A 
ATOM      4  C   UNL     1      34.928  57.885  57.713  0.00  0.00    +0.000 A 
ATOM      5  C   UNL     1      35.564  58.406  56.616  0.00  0.00    +0.000 A 
ATOM      6  C   UNL     1      36.710  59.189  56.776  0.00  0.00    +0.000 A 
ATOM      7  C   UNL     1      37.183  59.420  58.044  0.00  0.00    +0.000 A 
ATOM      8  C   UNL     1      36.512  58.877  59.103  0.00  0.00    +0.000 A 
ATOM      9  O   UNL     1      38.320  60.218  57.891  0.00  0.00    +0.000 OA
ATOM     10  C   UNL     1      38.437  60.638  56.539  0.00  0.00    +0.000 C 
ATOM     11  O   UNL     1      37.520  59.818  55.837  0.00  0.00    +0.000 OA
BRANCH   5  12
ATOM     12  O   UNL     1      35.131  58.206  55.320  0.00  0.00    +0.000 OA
ATOM     13  C   UNL     1      34.349  59.143  54.622  0.00  0.00    +0.000 C 
ENDBRANCH   5  12
ENDBRANCH   2   3
BRANCH   1  16
ATOM     14  C   UNL     1      36.423  53.532  58.721  0.00  0.00    +0.000 A 
ATOM     15  C   UNL     1      35.591  54.472  59.286  0.00  0.00    +0.000 A 
ATOM     16  C   UNL     1      35.996  55.500  60.101  0.00  0.00    +0.000 A 
ATOM     17  C   UNL     1      37.383  55.547  60.343  0.00  0.00    +0.000 A 
ATOM     18  C   UNL     1      38.242  54.618  59.791  0.00  0.00    +0.000 A 
ATOM     19  C   UNL     1      37.781  53.608  58.980  0.00  0.00    +0.000 A 
BRANCH  14  21
ATOM     20  C   UNL     1      35.303  51.384  58.431  0.00  0.00    +0.000 C 
ATOM     21  O   UNL     1      35.931  52.512  57.898  0.00  0.00    +0.000 OA
ENDBRANCH  14  21
BRANCH  18  22
ATOM     22  O   UNL     1      39.618  54.704  60.059  0.00  0.00    +0.000 OA
ATOM     23  C   UNL     1      40.117  54.480  61.361  0.00  0.00    +0.000 C 
ENDBRANCH  18  22
BRANCH  19  24
ATOM     24  O   UNL     1      38.675  52.673  58.429  0.00  0.00    +0.000 OA
ATOM     25  C   UNL     1      38.965  51.524  59.224  0.00  0.00    +0.000 C 
ENDBRANCH  19  24
ENDBRANCH   1  16
BRANCH   2  26
ATOM     26  C   UNL     1      33.814  58.450  60.926  0.00  0.00    +0.000 C 
ATOM     27  N   UNL     1      33.036  59.090  61.484  0.00  0.00    +0.000 NA
ENDBRANCH   2  26
TORSDOF 7
ENDMDL
MODEL 2
REMARK VINA RESULT:      -5.8      2.312      6.321
REMARK  Name = 
REMARK  7 active torsions:
REMARK  status: ('A' for Active; 'I' for Inactive)
REMARK    1  A    between atoms: O_2  and  C_3
REMARK    2  A    between atoms: C_5  and  C_6
REMARK    3  A    between atoms: C_7  and  C_8
REMARK    4  A    between atoms: C_7  and  C_10
REMARK    5  A    between atoms: C_12  and  O_13
REMARK    6  A    between atoms: C_22  and  O_23
REMARK    7  A    between atoms: C_25  and  O_26
REMARK                            x       y       z     vdW  Elec       q    Type
REMARK                         _______ _______ _______ _____ _____    ______ ____
ROOT
ATOM      1  C   UNL     1      35.297  55.041  60.319  0.00  0.00    +0.000 C 
ATOM      2  C   UNL     1      36.011  54.033  60.691  0.00  0.00    +0.000 C 
ENDROOT
BRANCH   2   3
ATOM      3  C   UNL     1      37.448  54.023  60.496  0.00  0.00    +0.000 A 
ATOM      4  C   UNL     1      38.406  54.523  61.290  0.00  0.00    +0.000 A 
ATOM      5  C   UNL     1      39.739  54.444  60.981  0.00  0.00    +0.000 A 
ATOM      6  C   UNL     1      40.149  53.823  59.799  0.00  0.00    +0.000 A 
ATOM      7  C   UNL     1      39.196  53.300  58.960  0.00  0.00    +0.000 A 
ATOM      8  C   UNL     1      37.881  53.405  59.315  0.00  0.00    +0.000 A 
ATOM      9  O   UNL     1      39.894  52.754  57.878  0.00  0.00    +0.000 OA
ATOM     10  C   UNL     1      41.288  52.771  58.145  0.00  0.00    +0.000 C 
ATOM     11  O   UNL     1      41.420  53.621  59.270  0.00  0.00    +0.000 OA
BRANCH   5  12
ATOM     12  O   UNL     1      40.738  54.952  61.788  0.00  0.00    +0.000 OA
ATOM     13  C   UNL     1      40.480  55.587  63.015  0.00  0.00    +0.000 C 
ENDBRANCH   5  12
ENDBRANCH   2   3
BRANCH   1  16
ATOM     14  C   UNL     1      35.974  57.411  57.515  0.00  0.00    +0.000 A 
ATOM     15  C   UNL     1      35.567  56.328  58.261  0.00  0.00    +0.000 A 
ATOM     16  C   UNL     1      35.737  56.192  59.617  0.00  0.00    +0.000 A 
ATOM     17  C   UNL     1      36.387  57.276  60.240  0.00  0.00    +0.000 A 
ATOM     18  C   UNL     1      36.807  58.375  59.518  0.00  0.00    +0.000 A 
ATOM     19  C   UNL     1      36.609  58.459  58.160  0.00  0.00    +0.000 A 
BRANCH  14  21
ATOM     20  C   UNL     1      36.746  57.076  55.225  0.00  0.00    +0.000 C 
ATOM     21  O   UNL     1      35.762  57.475  56.134  0.00  0.00    +0.000 OA
ENDBRANCH  14  21
BRANCH  18  22
ATOM     22  O   UNL     1      37.450  59.433  60.181  0.00  0.00    +0.000 OA
ATOM     23  C   UNL     1      38.396  59.182  61.198  0.00  0.00    +0.000 C 
ENDBRANCH  18  22
BRANCH  19  24
ATOM     24  O   UNL     1      37.046  59.588  57.446  0.00  0.00    +0.000 OA
ATOM     25  C   UNL     1      36.096  60.639  57.273  0.00  0.00    +0.000 C 
ENDBRANCH  19  24
ENDBRANCH   1  16
BRANCH   2  26
ATOM     26  C   UNL     1      35.380  52.906  61.411  0.00  0.00    +0.000 C 
ATOM     27  N   UNL     1      34.880  52.041  61.985  0.00  0.00    +0.000 NA
ENDBRANCH   2  26
TORSDOF 7
ENDMDL
MODEL 3
REMARK VINA RESULT:      -5.8      0.154      2.376
REMARK  Name = 
REMARK  7 active torsions:
REMARK  status: ('A' for Active; 'I' for Inactive)
REMARK    1  A    between atoms: O_2  and  C_3
REMARK    2  A    between atoms: C_5  and  C_6
REMARK    3  A    between atoms: C_7  and  C_8
REMARK    4  A    between atoms: C_7  and  C_10
REMARK    5  A    between atoms: C_12  and  O_13
REMARK    6  A    between atoms: C_22  and  O_23
REMARK    7  A    between atoms: C_25  and  O_26
REMARK                            x       y       z     vdW  Elec       q    Type
REMARK                         _______ _______ _______ _____ _____    ______ ____
ROOT
ATOM      1  C   UNL     1      34.956  56.512  60.642  0.00  0.00    +0.000 C 
ATOM      2  C   UNL     1      34.705  57.697  60.197  0.00  0.00    +0.000 C 
ENDROOT
BRANCH   2   3
ATOM      3  C   UNL     1      35.267  58.156  58.942  0.00  0.00    +0.000 A 
ATOM      4  C   UNL     1      34.802  57.975  57.697  0.00  0.00    +0.000 A 
ATOM      5  C   UNL     1      35.440  58.469  56.589  0.00  0.00    +0.000 A 
ATOM      6  C   UNL     1      36.624  59.196  56.728  0.00  0.00    +0.000 A 
ATOM      7  C   UNL     1      37.132  59.401  57.987  0.00  0.00    +0.000 A 
ATOM      8  C   UNL     1      36.457  58.888  59.058  0.00  0.00    +0.000 A 
ATOM      9  O   UNL     1      38.302  60.146  57.813  0.00  0.00    +0.000 OA
ATOM     10  C   UNL     1      38.413  60.564  56.460  0.00  0.00    +0.000 C 
ATOM     11  O   UNL     1      37.445  59.789  55.774  0.00  0.00    +0.000 OA
BRANCH   5  12
ATOM     12  O   UNL     1      34.973  58.293  55.301  0.00  0.00    +0.000 OA
ATOM     13  C   UNL     1      34.164  59.237  54.646  0.00  0.00    +0.000 C 
ENDBRANCH   5  12
ENDBRANCH   2   3
BRANCH   1  16
ATOM     14  C   UNL     1      38.103  54.687  59.804  0.00  0.00    +0.000 A 
ATOM     15  C   UNL     1      37.189  55.579  60.319  0.00  0.00    +0.000 A 
ATOM     16  C   UNL     1      35.837  55.553  60.081  0.00  0.00    +0.000 A 
ATOM     17  C   UNL     1      35.408  54.510  59.237  0.00  0.00    +0.000 A 
ATOM     18  C   UNL     1      36.300  53.601  58.705  0.00  0.00    +0.000 A 
ATOM     19  C   UNL     1      37.647  53.674  58.977  0.00  0.00    +0.000 A 
BRANCH  14  21
ATOM     20  C   UNL     1      39.936  54.754  61.411  0.00  0.00    +0.000 C 
ATOM     21  O   UNL     1      39.468  54.780  60.095  0.00  0.00    +0.000 OA
ENDBRANCH  14  21
BRANCH  18  22
ATOM     22  O   UNL     1      35.828  52.577  57.867  0.00  0.00    +0.000 OA
ATOM     23  C   UNL     1      35.254  51.407  58.409  0.00  0.00    +0.000 C 
ENDBRANCH  18  22
BRANCH  19  24
ATOM     24  O   UNL     1      38.536  52.737  58.423  0.00  0.00    +0.000 OA
ATOM     25  C   UNL     1      38.861  51.610  59.236  0.00  0.00    +0.000 C 
ENDBRANCH  19  24
ENDBRANCH   1  16
BRANCH   2  26
ATOM     26  C   UNL     1      33.759  58.573  60.920  0.00  0.00    +0.000 C 
ATOM     27  N   UNL     1      33.017  59.240  61.495  0.00  0.00    +0.000 NA
ENDBRANCH   2  26
TORSDOF 7
ENDMDL
MODEL 4
REMARK VINA RESULT:      -5.8      1.889      6.214
REMARK  Name = 
REMARK  7 active torsions:
REMARK  status: ('A' for Active; 'I' for Inactive)
REMARK    1  A    between atoms: O_2  and  C_3
REMARK    2  A    between atoms: C_5  and  C_6
REMARK    3  A    between atoms: C_7  and  C_8
REMARK    4  A    between atoms: C_7  and  C_10
REMARK    5  A    between atoms: C_12  and  O_13
REMARK    6  A    between atoms: C_22  and  O_23
REMARK    7  A    between atoms: C_25  and  O_26
REMARK                            x       y       z     vdW  Elec       q    Type
REMARK                         _______ _______ _______ _____ _____    ______ ____
ROOT
ATOM      1  C   UNL     1      34.648  56.621  58.688  0.00  0.00    +0.000 C 
ATOM      2  C   UNL     1      34.983  55.561  59.343  0.00  0.00    +0.000 C 
ENDROOT
BRANCH   2   3
ATOM      3  C   UNL     1      36.372  55.278  59.647  0.00  0.00    +0.000 A 
ATOM      4  C   UNL     1      37.115  55.724  60.670  0.00  0.00    +0.000 A 
ATOM      5  C   UNL     1      38.430  55.374  60.838  0.00  0.00    +0.000 A 
ATOM      6  C   UNL     1      39.050  54.519  59.923  0.00  0.00    +0.000 A 
ATOM      7  C   UNL     1      38.321  54.044  58.861  0.00  0.00    +0.000 A 
ATOM      8  C   UNL     1      37.014  54.423  58.741  0.00  0.00    +0.000 A 
ATOM      9  O   UNL     1      39.191  53.229  58.131  0.00  0.00    +0.000 OA
ATOM     10  C   UNL     1      40.403  53.049  58.850  0.00  0.00    +0.000 C 
ATOM     11  O   UNL     1      40.350  54.026  59.875  0.00  0.00    +0.000 OA
BRANCH   5  12
ATOM     12  O   UNL     1      39.208  55.821  61.887  0.00  0.00    +0.000 OA
ATOM     13  C   UNL     1      39.043  57.087  62.475  0.00  0.00    +0.000 C 
ENDBRANCH   5  12
ENDBRANCH   2   3
BRANCH   1  16
ATOM     14  C   UNL     1      36.720  58.411  56.151  0.00  0.00    +0.000 A 
ATOM     15  C   UNL     1      35.879  57.523  56.781  0.00  0.00    +0.000 A 
ATOM     16  C   UNL     1      35.516  57.578  58.104  0.00  0.00    +0.000 A 
ATOM     17  C   UNL     1      36.081  58.650  58.825  0.00  0.00    +0.000 A 
ATOM     18  C   UNL     1      36.928  59.556  58.220  0.00  0.00    +0.000 A 
ATOM     19  C   UNL     1      37.258  59.453  56.888  0.00  0.00    +0.000 A 
BRANCH  14  21
ATOM     20  C   UNL     1      36.072  58.444  53.799  0.00  0.00    +0.000 C 
ATOM     21  O   UNL     1      37.040  58.287  54.794  0.00  0.00    +0.000 OA
ENDBRANCH  14  21
BRANCH  18  22
ATOM     22  O   UNL     1      37.469  60.609  58.976  0.00  0.00    +0.000 OA
ATOM     23  C   UNL     1      38.158  60.355  60.182  0.00  0.00    +0.000 C 
ENDBRANCH  18  22
BRANCH  19  24
ATOM     24  O   UNL     1      38.123  60.388  56.294  0.00  0.00    +0.000 OA
ATOM     25  C   UNL     1      37.515  61.546  55.724  0.00  0.00    +0.000 C 
ENDBRANCH  19  24
ENDBRANCH   1  16
BRANCH   2  26
ATOM     26  C   UNL     1      33.937  54.662  59.877  0.00  0.00    +0.000 C 
ATOM     27  N   UNL     1      33.116  53.958  60.274  0.00  0.00    +0.000 NA
ENDBRANCH   2  26
TORSDOF 7
ENDMDL
MODEL 5
REMARK VINA RESULT:      -5.8      1.884      6.553
REMARK  Name = 
REMARK  7 active torsions:
REMARK  status: ('A' for Active; 'I' for Inactive)
REMARK    1  A    between atoms: O_2  and  C_3
REMARK    2  A    between atoms: C_5  and  C_6
REMARK    3  A    between atoms: C_7  and  C_8
REMARK    4  A    between atoms: C_7  and  C_10
REMARK    5  A    between atoms: C_12  and  O_13
REMARK    6  A    between atoms: C_22  and  O_23
REMARK    7  A    between atoms: C_25  and  O_26
REMARK                            x       y       z     vdW  Elec       q    Type
REMARK                         _______ _______ _______ _____ _____    ______ ____
ROOT
ATOM      1  C   UNL     1      34.663  56.585  58.625  0.00  0.00    +0.000 C 
ATOM      2  C   UNL     1      34.981  55.522  59.283  0.00  0.00    +0.000 C 
ENDROOT
BRANCH   2   3
ATOM      3  C   UNL     1      36.367  55.209  59.571  0.00  0.00    +0.000 A 
ATOM      4  C   UNL     1      37.127  55.628  60.593  0.00  0.00    +0.000 A 
ATOM      5  C   UNL     1      38.437  55.251  60.745  0.00  0.00    +0.000 A 
ATOM      6  C   UNL     1      39.032  54.395  59.815  0.00  0.00    +0.000 A 
ATOM      7  C   UNL     1      38.285  53.947  58.754  0.00  0.00    +0.000 A 
ATOM      8  C   UNL     1      36.985  54.352  58.649  0.00  0.00    +0.000 A 
ATOM      9  O   UNL     1      39.134  53.124  58.007  0.00  0.00    +0.000 OA
ATOM     10  C   UNL     1      40.348  52.913  58.713  0.00  0.00    +0.000 C 
ATOM     11  O   UNL     1      40.322  53.878  59.750  0.00  0.00    +0.000 OA
BRANCH   5  12
ATOM     12  O   UNL     1      39.232  55.671  61.793  0.00  0.00    +0.000 OA
ATOM     13  C   UNL     1      39.072  56.918  62.421  0.00  0.00    +0.000 C 
ENDBRANCH   5  12
ENDBRANCH   2   3
BRANCH   1  16
ATOM     14  C   UNL     1      36.981  59.483  58.217  0.00  0.00    +0.000 A 
ATOM     15  C   UNL     1      36.123  58.539  58.736  0.00  0.00    +0.000 A 
ATOM     16  C   UNL     1      35.546  57.518  58.023  0.00  0.00    +0.000 A 
ATOM     17  C   UNL     1      35.895  57.482  56.658  0.00  0.00    +0.000 A 
ATOM     18  C   UNL     1      36.751  58.415  56.110  0.00  0.00    +0.000 A 
ATOM     19  C   UNL     1      37.303  59.418  56.872  0.00  0.00    +0.000 A 
BRANCH  14  21
ATOM     20  C   UNL     1      38.007  60.233  60.299  0.00  0.00    +0.000 C 
ATOM     21  O   UNL     1      37.531  60.494  59.012  0.00  0.00    +0.000 OA
ENDBRANCH  14  21
BRANCH  18  22
ATOM     22  O   UNL     1      37.071  58.341  54.744  0.00  0.00    +0.000 OA
ATOM     23  C   UNL     1      36.072  58.486  53.758  0.00  0.00    +0.000 C 
ENDBRANCH  18  22
BRANCH  19  24
ATOM     24  O   UNL     1      38.173  60.357  56.291  0.00  0.00    +0.000 OA
ATOM     25  C   UNL     1      37.573  61.535  55.755  0.00  0.00    +0.000 C 
ENDBRANCH  19  24
ENDBRANCH   1  16
BRANCH   2  26
ATOM     26  C   UNL     1      33.922  54.651  59.836  0.00  0.00    +0.000 C 
ATOM     27  N   UNL     1      33.083  53.983  60.257  0.00  0.00    +0.000 NA
ENDBRANCH   2  26
TORSDOF 7
ENDMDL
MODEL 6
REMARK VINA RESULT:      -5.6      2.454      6.685
REMARK  Name = 
REMARK  7 active torsions:
REMARK  status: ('A' for Active; 'I' for Inactive)
REMARK    1  A    between atoms: O_2  and  C_3
REMARK    2  A    between atoms: C_5  and  C_6
REMARK    3  A    between atoms: C_7  and  C_8
REMARK    4  A    between atoms: C_7  and  C_10
REMARK    5  A    between atoms: C_12  and  O_13
REMARK    6  A    between atoms: C_22  and  O_23
REMARK    7  A    between atoms: C_25  and  O_26
REMARK                            x       y       z     vdW  Elec       q    Type
REMARK                         _______ _______ _______ _____ _____    ______ ____
ROOT
ATOM      1  C   UNL     1      35.106  54.244  59.444  0.00  0.00    +0.000 C 
ATOM      2  C   UNL     1      35.921  53.258  59.611  0.00  0.00    +0.000 C 
ENDROOT
BRANCH   2   3
ATOM      3  C   UNL     1      37.352  53.477  59.689  0.00  0.00    +0.000 A 
ATOM      4  C   UNL     1      38.049  54.153  60.613  0.00  0.00    +0.000 A 
ATOM      5  C   UNL     1      39.413  54.284  60.564  0.00  0.00    +0.000 A 
ATOM      6  C   UNL     1      40.135  53.700  59.520  0.00  0.00    +0.000 A 
ATOM      7  C   UNL     1      39.456  53.001  58.554  0.00  0.00    +0.000 A 
ATOM      8  C   UNL     1      38.096  52.901  58.650  0.00  0.00    +0.000 A 
ATOM      9  O   UNL     1      40.425  52.541  57.657  0.00  0.00    +0.000 OA
ATOM     10  C   UNL     1      41.722  52.795  58.177  0.00  0.00    +0.000 C 
ATOM     11  O   UNL     1      41.500  53.691  59.251  0.00  0.00    +0.000 OA
BRANCH   5  12
ATOM     12  O   UNL     1      40.146  54.974  61.509  0.00  0.00    +0.000 OA
ATOM     13  C   UNL     1      40.636  54.375  62.682  0.00  0.00    +0.000 C 
ENDBRANCH   5  12
ENDBRANCH   2   3
BRANCH   1  16
ATOM     14  C   UNL     1      35.654  57.883  60.069  0.00  0.00    +0.000 A 
ATOM     15  C   UNL     1      35.355  56.548  60.215  0.00  0.00    +0.000 A 
ATOM     16  C   UNL     1      35.439  55.605  59.221  0.00  0.00    +0.000 A 
ATOM     17  C   UNL     1      35.872  56.100  57.975  0.00  0.00    +0.000 A 
ATOM     18  C   UNL     1      36.178  57.434  57.798  0.00  0.00    +0.000 A 
ATOM     19  C   UNL     1      36.077  58.337  58.831  0.00  0.00    +0.000 A 
BRANCH  14  21
ATOM     20  C   UNL     1      36.521  58.859  62.130  0.00  0.00    +0.000 C 
ATOM     21  O   UNL     1      35.544  58.784  61.135  0.00  0.00    +0.000 OA
ENDBRANCH  14  21
BRANCH  18  22
ATOM     22  O   UNL     1      36.606  57.885  56.538  0.00  0.00    +0.000 OA
ATOM     23  C   UNL     1      36.437  57.084  55.388  0.00  0.00    +0.000 C 
ENDBRANCH  18  22
BRANCH  19  24
ATOM     24  O   UNL     1      36.394  59.691  58.627  0.00  0.00    +0.000 OA
ATOM     25  C   UNL     1      37.762  60.057  58.801  0.00  0.00    +0.000 C 
ENDBRANCH  19  24
ENDBRANCH   1  16
BRANCH   2  26
ATOM     26  C   UNL     1      35.395  51.893  59.823  0.00  0.00    +0.000 C 
ATOM     27  N   UNL     1      34.966  50.837  59.992  0.00  0.00    +0.000 NA
ENDBRANCH   2  26
TORSDOF 7
ENDMDL
MODEL 7
REMARK VINA RESULT:      -5.6      0.999      2.217
REMARK  Name = 
REMARK  7 active torsions:
REMARK  status: ('A' for Active; 'I' for Inactive)
REMARK    1  A    between atoms: O_2  and  C_3
REMARK    2  A    between atoms: C_5  and  C_6
REMARK    3  A    between atoms: C_7  and  C_8
REMARK    4  A    between atoms: C_7  and  C_10
REMARK    5  A    between atoms: C_12  and  O_13
REMARK    6  A    between atoms: C_22  and  O_23
REMARK    7  A    between atoms: C_25  and  O_26
REMARK                            x       y       z     vdW  Elec       q    Type
REMARK                         _______ _______ _______ _____ _____    ______ ____
ROOT
ATOM      1  C   UNL     1      34.853  56.857  60.288  0.00  0.00    +0.000 C 
ATOM      2  C   UNL     1      34.745  58.023  59.747  0.00  0.00    +0.000 C 
ENDROOT
BRANCH   2   3
ATOM      3  C   UNL     1      35.586  58.408  58.631  0.00  0.00    +0.000 A 
ATOM      4  C   UNL     1      36.666  59.202  58.629  0.00  0.00    +0.000 A 
ATOM      5  C   UNL     1      37.375  59.487  57.490  0.00  0.00    +0.000 A 
ATOM      6  C   UNL     1      36.981  58.942  56.265  0.00  0.00    +0.000 A 
ATOM      7  C   UNL     1      35.878  58.125  56.228  0.00  0.00    +0.000 A 
ATOM      8  C   UNL     1      35.208  57.874  57.392  0.00  0.00    +0.000 A 
ATOM      9  O   UNL     1      35.730  57.740  54.892  0.00  0.00    +0.000 OA
ATOM     10  C   UNL     1      36.857  58.165  54.139  0.00  0.00    +0.000 C 
ATOM     11  O   UNL     1      37.524  59.079  54.992  0.00  0.00    +0.000 OA
BRANCH   5  12
ATOM     12  O   UNL     1      38.491  60.300  57.472  0.00  0.00    +0.000 OA
ATOM     13  C   UNL     1      38.954  60.987  58.607  0.00  0.00    +0.000 C 
ENDBRANCH   5  12
ENDBRANCH   2   3
BRANCH   1  16
ATOM     14  C   UNL     1      36.376  53.771  58.841  0.00  0.00    +0.000 A 
ATOM     15  C   UNL     1      35.505  54.783  59.175  0.00  0.00    +0.000 A 
ATOM     16  C   UNL     1      35.806  55.853  59.981  0.00  0.00    +0.000 A 
ATOM     17  C   UNL     1      37.125  55.863  60.477  0.00  0.00    +0.000 A 
ATOM     18  C   UNL     1      38.021  54.861  60.160  0.00  0.00    +0.000 A 
ATOM     19  C   UNL     1      37.665  53.811  59.346  0.00  0.00    +0.000 A 
BRANCH  14  21
ATOM     20  C   UNL     1      35.394  51.560  58.525  0.00  0.00    +0.000 C 
ATOM     21  O   UNL     1      35.992  52.713  58.010  0.00  0.00    +0.000 OA
ENDBRANCH  14  21
BRANCH  18  22
ATOM     22  O   UNL     1      39.326  54.911  60.677  0.00  0.00    +0.000 OA
ATOM     23  C   UNL     1      39.592  55.547  61.910  0.00  0.00    +0.000 C 
ENDBRANCH  18  22
BRANCH  19  24
ATOM     24  O   UNL     1      38.594  52.803  59.037  0.00  0.00    +0.000 OA
ATOM     25  C   UNL     1      39.435  53.036  57.909  0.00  0.00    +0.000 C 
ENDBRANCH  19  24
ENDBRANCH   1  16
BRANCH   2  26
ATOM     26  C   UNL     1      33.689  58.953  60.201  0.00  0.00    +0.000 C 
ATOM     27  N   UNL     1      32.855  59.662  60.561  0.00  0.00    +0.000 NA
ENDBRANCH   2  26
TORSDOF 7
ENDMDL
MODEL 8
REMARK VINA RESULT:      -5.5      1.045      3.218
REMARK  Name = 
REMARK  7 active torsions:
REMARK  status: ('A' for Active; 'I' for Inactive)
REMARK    1  A    between atoms: O_2  and  C_3
REMARK    2  A    between atoms: C_5  and  C_6
REMARK    3  A    between atoms: C_7  and  C_8
REMARK    4  A    between atoms: C_7  and  C_10
REMARK    5  A    between atoms: C_12  and  O_13
REMARK    6  A    between atoms: C_22  and  O_23
REMARK    7  A    between atoms: C_25  and  O_26
REMARK                            x       y       z     vdW  Elec       q    Type
REMARK                         _______ _______ _______ _____ _____    ______ ____
ROOT
ATOM      1  C   UNL     1      34.645  57.012  60.134  0.00  0.00    +0.000 C 
ATOM      2  C   UNL     1      34.600  58.176  59.581  0.00  0.00    +0.000 C 
ENDROOT
BRANCH   2   3
ATOM      3  C   UNL     1      35.504  58.526  58.503  0.00  0.00    +0.000 A 
ATOM      4  C   UNL     1      36.607  59.287  58.546  0.00  0.00    +0.000 A 
ATOM      5  C   UNL     1      37.377  59.539  57.440  0.00  0.00    +0.000 A 
ATOM      6  C   UNL     1      37.024  58.995  56.202  0.00  0.00    +0.000 A 
ATOM      7  C   UNL     1      35.900  58.211  56.119  0.00  0.00    +0.000 A 
ATOM      8  C   UNL     1      35.169  57.991  57.252  0.00  0.00    +0.000 A 
ATOM      9  O   UNL     1      35.804  57.817  54.781  0.00  0.00    +0.000 OA
ATOM     10  C   UNL     1      36.977  58.202  54.079  0.00  0.00    +0.000 C 
ATOM     11  O   UNL     1      37.631  59.103  54.955  0.00  0.00    +0.000 OA
BRANCH   5  12
ATOM     12  O   UNL     1      38.516  60.318  57.467  0.00  0.00    +0.000 OA
ATOM     13  C   UNL     1      38.492  61.715  57.306  0.00  0.00    +0.000 C 
ENDBRANCH   5  12
ENDBRANCH   2   3
BRANCH   1  16
ATOM     14  C   UNL     1      37.805  55.026  60.194  0.00  0.00    +0.000 A 
ATOM     15  C   UNL     1      36.847  55.991  60.405  0.00  0.00    +0.000 A 
ATOM     16  C   UNL     1      35.579  55.976  59.879  0.00  0.00    +0.000 A 
ATOM     17  C   UNL     1      35.292  54.860  59.066  0.00  0.00    +0.000 A 
ATOM     18  C   UNL     1      36.233  53.877  58.836  0.00  0.00    +0.000 A 
ATOM     19  C   UNL     1      37.490  53.942  59.390  0.00  0.00    +0.000 A 
BRANCH  14  21
ATOM     20  C   UNL     1      39.258  55.575  62.075  0.00  0.00    +0.000 C 
ATOM     21  O   UNL     1      39.078  55.113  60.769  0.00  0.00    +0.000 OA
ENDBRANCH  14  21
BRANCH  18  22
ATOM     22  O   UNL     1      35.904  52.783  58.019  0.00  0.00    +0.000 OA
ATOM     23  C   UNL     1      35.303  51.627  58.565  0.00  0.00    +0.000 C 
ENDBRANCH  18  22
BRANCH  19  24
ATOM     24  O   UNL     1      38.431  52.929  59.141  0.00  0.00    +0.000 OA
ATOM     25  C   UNL     1      39.376  53.179  58.101  0.00  0.00    +0.000 C 
ENDBRANCH  19  24
ENDBRANCH   1  16
BRANCH   2  26
ATOM     26  C   UNL     1      33.555  59.144  59.980  0.00  0.00    +0.000 C 
ATOM     27  N   UNL     1      32.745  59.908  60.274  0.00  0.00    +0.000 NA
ENDBRANCH   2  26
TORSDOF 7
ENDMDL
MODEL 9
REMARK VINA RESULT:      -5.5      2.173      6.756
REMARK  Name = 
REMARK  7 active torsions:
REMARK  status: ('A' for Active; 'I' for Inactive)
REMARK    1  A    between atoms: O_2  and  C_3
REMARK    2  A    between atoms: C_5  and  C_6
REMARK    3  A    between atoms: C_7  and  C_8
REMARK    4  A    between atoms: C_7  and  C_10
REMARK    5  A    between atoms: C_12  and  O_13
REMARK    6  A    between atoms: C_22  and  O_23
REMARK    7  A    between atoms: C_25  and  O_26
REMARK                            x       y       z     vdW  Elec       q    Type
REMARK                         _______ _______ _______ _____ _____    ______ ____
ROOT
ATOM      1  C   UNL     1      36.872  58.400  59.714  0.00  0.00    +0.000 C 
ATOM      2  C   UNL     1      37.103  57.308  60.361  0.00  0.00    +0.000 C 
ENDROOT
BRANCH   2   3
ATOM      3  C   UNL     1      36.647  56.029  59.856  0.00  0.00    +0.000 A 
ATOM      4  C   UNL     1      37.372  55.011  59.371  0.00  0.00    +0.000 A 
ATOM      5  C   UNL     1      36.806  53.846  58.921  0.00  0.00    +0.000 A 
ATOM      6  C   UNL     1      35.419  53.682  58.957  0.00  0.00    +0.000 A 
ATOM      7  C   UNL     1      34.643  54.704  59.446  0.00  0.00    +0.000 A 
ATOM      8  C   UNL     1      35.258  55.843  59.882  0.00  0.00    +0.000 A 
ATOM      9  O   UNL     1      33.320  54.259  59.358  0.00  0.00    +0.000 OA
ATOM     10  C   UNL     1      33.296  52.887  58.992  0.00  0.00    +0.000 C 
ATOM     11  O   UNL     1      34.618  52.614  58.565  0.00  0.00    +0.000 OA
BRANCH   5  12
ATOM     12  O   UNL     1      37.538  52.787  58.421  0.00  0.00    +0.000 OA
ATOM     13  C   UNL     1      38.005  51.734  59.226  0.00  0.00    +0.000 C 
ENDBRANCH   5  12
ENDBRANCH   2   3
BRANCH   1  16
ATOM     14  C   UNL     1      35.900  58.320  56.110  0.00  0.00    +0.000 A 
ATOM     15  C   UNL     1      36.587  58.196  57.297  0.00  0.00    +0.000 A 
ATOM     16  C   UNL     1      36.102  58.549  58.532  0.00  0.00    +0.000 A 
ATOM     17  C   UNL     1      34.794  59.075  58.523  0.00  0.00    +0.000 A 
ATOM     18  C   UNL     1      34.082  59.212  57.349  0.00  0.00    +0.000 A 
ATOM     19  C   UNL     1      34.617  58.840  56.137  0.00  0.00    +0.000 A 
BRANCH  14  21
ATOM     20  C   UNL     1      37.630  58.533  54.403  0.00  0.00    +0.000 C 
ATOM     21  O   UNL     1      36.465  57.935  54.889  0.00  0.00    +0.000 OA
ENDBRANCH  14  21
BRANCH  18  22
ATOM     22  O   UNL     1      32.781  59.740  57.387  0.00  0.00    +0.000 OA
ATOM     23  C   UNL     1      32.565  61.111  57.646  0.00  0.00    +0.000 C 
ENDBRANCH  18  22
BRANCH  19  24
ATOM     24  O   UNL     1      33.873  58.989  54.955  0.00  0.00    +0.000 OA
ATOM     25  C   UNL     1      34.037  60.218  54.249  0.00  0.00    +0.000 C 
ENDBRANCH  19  24
ENDBRANCH   1  16
BRANCH   2  26
ATOM     26  C   UNL     1      37.926  57.339  61.590  0.00  0.00    +0.000 C 
ATOM     27  N   UNL     1      38.580  57.351  62.538  0.00  0.00    +0.000 NA
ENDBRANCH   2  26
TORSDOF 7
ENDMDL
MODEL 10
REMARK VINA RESULT:      -5.4      3.998      6.303
REMARK  Name = 
REMARK  7 active torsions:
REMARK  status: ('A' for Active; 'I' for Inactive)
REMARK    1  A    between atoms: O_2  and  C_3
REMARK    2  A    between atoms: C_5  and  C_6
REMARK    3  A    between atoms: C_7  and  C_8
REMARK    4  A    between atoms: C_7  and  C_10
REMARK    5  A    between atoms: C_12  and  O_13
REMARK    6  A    between atoms: C_22  and  O_23
REMARK    7  A    between atoms: C_25  and  O_26
REMARK                            x       y       z     vdW  Elec       q    Type
REMARK                         _______ _______ _______ _____ _____    ______ ____
ROOT
ATOM      1  C   UNL     1      35.259  53.276  60.609  0.00  0.00    +0.000 C 
ATOM      2  C   UNL     1      35.962  54.189  60.028  0.00  0.00    +0.000 C 
ENDROOT
BRANCH   2   3
ATOM      3  C   UNL     1      37.410  54.109  59.998  0.00  0.00    +0.000 A 
ATOM      4  C   UNL     1      38.295  54.568  60.895  0.00  0.00    +0.000 A 
ATOM      5  C   UNL     1      39.649  54.424  60.739  0.00  0.00    +0.000 A 
ATOM      6  C   UNL     1      40.160  53.776  59.611  0.00  0.00    +0.000 A 
ATOM      7  C   UNL     1      39.284  53.295  58.671  0.00  0.00    +0.000 A 
ATOM      8  C   UNL     1      37.944  53.464  58.874  0.00  0.00    +0.000 A 
ATOM      9  O   UNL     1      40.073  52.709  57.675  0.00  0.00    +0.000 OA
ATOM     10  C   UNL     1      41.428  52.662  58.098  0.00  0.00    +0.000 C 
ATOM     11  O   UNL     1      41.472  53.511  59.231  0.00  0.00    +0.000 OA
BRANCH   5  12
ATOM     12  O   UNL     1      40.573  54.888  61.654  0.00  0.00    +0.000 OA
ATOM     13  C   UNL     1      40.213  55.605  62.808  0.00  0.00    +0.000 C 
ENDBRANCH   5  12
ENDBRANCH   2   3
BRANCH   1  16
ATOM     14  C   UNL     1      36.229  51.136  63.510  0.00  0.00    +0.000 A 
ATOM     15  C   UNL     1      35.773  52.171  62.725  0.00  0.00    +0.000 A 
ATOM     16  C   UNL     1      35.737  52.167  61.352  0.00  0.00    +0.000 A 
ATOM     17  C   UNL     1      36.218  50.986  60.754  0.00  0.00    +0.000 A 
ATOM     18  C   UNL     1      36.683  49.932  61.515  0.00  0.00    +0.000 A 
ATOM     19  C   UNL     1      36.695  49.989  62.889  0.00  0.00    +0.000 A 
BRANCH  14  21
ATOM     20  C   UNL     1      35.051  51.104  65.645  0.00  0.00    +0.000 C 
ATOM     21  O   UNL     1      36.231  51.216  64.906  0.00  0.00    +0.000 OA
ENDBRANCH  14  21
BRANCH  18  22
ATOM     22  O   UNL     1      37.153  48.772  60.876  0.00  0.00    +0.000 OA
ATOM     23  C   UNL     1      38.441  48.736  60.299  0.00  0.00    +0.000 C 
ENDBRANCH  18  22
BRANCH  19  24
ATOM     24  O   UNL     1      37.173  48.903  63.643  0.00  0.00    +0.000 OA
ATOM     25  C   UNL     1      38.544  48.953  64.033  0.00  0.00    +0.000 C 
ENDBRANCH  19  24
ENDBRANCH   1  16
BRANCH   2  26
ATOM     26  C   UNL     1      35.291  55.286  59.299  0.00  0.00    +0.000 C 
ATOM     27  N   UNL     1      34.763  56.149  58.749  0.00  0.00    +0.000 NA
ENDBRANCH   2  26
TORSDOF 7
ENDMDL
