REMARK  Name = 
REMARK  8 active torsions:
REMARK  status: ('A' for Active; 'I' for Inactive)
REMARK    1  A    between atoms: O_2  and  C_3
REMARK    2  A    between atoms: C_5  and  C_6
REMARK    3  A    between atoms: C_7  and  C_8
REMARK    4  A    between atoms: C_10  and  O_11
REMARK    5  A    between atoms: C_13  and  O_14
REMARK    6  A    between atoms: C_16  and  O_17
REMARK    7  A    between atoms: C_21  and  O_22
REMARK    8  A    between atoms: C_24  and  O_25
REMARK                            x       y       z     vdW  Elec       q    Type
REMARK                         _______ _______ _______ _____ _____    ______ ____
ROOT
ATOM      1  C   UNL     1       0.002  -0.435  -0.330  0.00  0.00    +0.000 C 
ATOM      2  C   UNL     1       0.085   0.628   0.431  0.00  0.00    +0.000 C 
ENDROOT
BRANCH   1   5
ATOM      3  C   UNL     1       2.164  -2.793  -2.283  0.00  0.00    +0.000 A 
ATOM      4  C   UNL     1       1.054  -2.189  -1.715  0.00  0.00    +0.000 A 
ATOM      5  C   UNL     1       1.184  -1.073  -0.927  0.00  0.00    +0.000 A 
ATOM      6  C   UNL     1       2.451  -0.559  -0.710  0.00  0.00    +0.000 A 
ATOM      7  C   UNL     1       3.569  -1.164  -1.280  0.00  0.00    +0.000 A 
ATOM      8  C   UNL     1       3.417  -2.279  -2.065  0.00  0.00    +0.000 A 
BRANCH   3  10
ATOM      9  C   UNL     1       0.711  -4.476  -3.316  0.00  0.00    +0.000 C 
ATOM     10  O   UNL     1       1.970  -3.909  -3.062  0.00  0.00    +0.000 OA
ENDBRANCH   3  10
BRANCH   7  11
ATOM     11  O   UNL     1       4.843  -0.664  -1.074  0.00  0.00    +0.000 OA
ATOM     12  C   UNL     1       5.122   0.471  -0.291  0.00  0.00    +0.000 C 
ENDBRANCH   7  11
BRANCH   8  13
ATOM     13  O   UNL     1       4.542  -2.858  -2.618  0.00  0.00    +0.000 OA
ATOM     14  C   UNL     1       5.320  -3.858  -2.024  0.00  0.00    +0.000 C 
ENDBRANCH   8  13
ENDBRANCH   1   5
BRANCH   2  15
ATOM     15  C   UNL     1      -1.128   1.245   1.015  0.00  0.00    +0.000 A 
ATOM     16  C   UNL     1      -2.376   0.681   0.739  0.00  0.00    +0.000 A 
ATOM     17  C   UNL     1      -3.513   1.224   1.258  0.00  0.00    +0.000 A 
ATOM     18  C   UNL     1      -3.470   2.335   2.061  0.00  0.00    +0.000 A 
ATOM     19  C   UNL     1      -2.230   2.926   2.358  0.00  0.00    +0.000 A 
ATOM     20  C   UNL     1      -1.094   2.353   1.819  0.00  0.00    +0.000 A 
BRANCH  17  21
ATOM     21  O   UNL     1      -4.803   0.712   1.025  0.00  0.00    +0.000 OA
ATOM     22  C   UNL     1      -4.854  -0.436   0.160  0.00  0.00    +0.000 C 
ENDBRANCH  17  21
BRANCH  18  23
ATOM     23  O   UNL     1      -4.600   2.908   2.600  0.00  0.00    +0.000 OA
ATOM     24  C   UNL     1      -5.094   2.504   3.870  0.00  0.00    +0.000 C 
ENDBRANCH  18  23
BRANCH  19  25
ATOM     25  O   UNL     1      -2.221   4.035   3.164  0.00  0.00    +0.000 OA
ATOM     26  C   UNL     1      -1.050   4.671   3.547  0.00  0.00    +0.000 C 
ENDBRANCH  19  25
ENDBRANCH   2  15
TORSDOF 8
