MODEL 1
REMARK VINA RESULT:      -6.0      0.000      0.000
REMARK  Name = 
REMARK  8 active torsions:
REMARK  status: ('A' for Active; 'I' for Inactive)
REMARK    1  A    between atoms: O_2  and  C_3
REMARK    2  A    between atoms: C_5  and  C_6
REMARK    3  A    between atoms: C_7  and  C_8
REMARK    4  A    between atoms: C_10  and  O_11
REMARK    5  A    between atoms: C_13  and  O_14
REMARK    6  A    between atoms: C_16  and  O_17
REMARK    7  A    between atoms: C_21  and  O_22
REMARK    8  A    between atoms: C_24  and  O_25
REMARK                            x       y       z     vdW  Elec       q    Type
REMARK                         _______ _______ _______ _____ _____    ______ ____
ROOT
ATOM      1  C   UNL     1      35.959  55.030  57.962  0.00  0.00    +0.000 C 
ATOM      2  C   UNL     1      36.543  56.126  57.547  0.00  0.00    +0.000 C 
ENDROOT
BRANCH   1   5
ATOM      3  C   UNL     1      36.776  51.749  59.579  0.00  0.00    +0.000 A 
ATOM      4  C   UNL     1      36.096  52.753  58.909  0.00  0.00    +0.000 A 
ATOM      5  C   UNL     1      36.685  53.970  58.676  0.00  0.00    +0.000 A 
ATOM      6  C   UNL     1      37.978  54.177  59.125  0.00  0.00    +0.000 A 
ATOM      7  C   UNL     1      38.665  53.169  59.799  0.00  0.00    +0.000 A 
ATOM      8  C   UNL     1      38.057  51.959  60.021  0.00  0.00    +0.000 A 
BRANCH   3  10
ATOM      9  C   UNL     1      35.064  50.379  60.677  0.00  0.00    +0.000 C 
ATOM     10  O   UNL     1      36.133  50.551  59.782  0.00  0.00    +0.000 OA
ENDBRANCH   3  10
BRANCH   7  11
ATOM     11  O   UNL     1      39.958  53.358  60.255  0.00  0.00    +0.000 OA
ATOM     12  C   UNL     1      41.094  53.321  59.426  0.00  0.00    +0.000 C 
ENDBRANCH   7  11
BRANCH   8  13
ATOM     13  O   UNL     1      38.761  50.978  60.691  0.00  0.00    +0.000 OA
ATOM     14  C   UNL     1      39.472  49.932  60.092  0.00  0.00    +0.000 C 
ENDBRANCH   8  13
ENDBRANCH   1   5
BRANCH   2  15
ATOM     15  C   UNL     1      35.780  57.173  56.829  0.00  0.00    +0.000 A 
ATOM     16  C   UNL     1      36.065  57.417  55.483  0.00  0.00    +0.000 A 
ATOM     17  C   UNL     1      35.383  58.374  54.792  0.00  0.00    +0.000 A 
ATOM     18  C   UNL     1      34.405  59.125  55.392  0.00  0.00    +0.000 A 
ATOM     19  C   UNL     1      34.095  58.904  56.745  0.00  0.00    +0.000 A 
ATOM     20  C   UNL     1      34.801  57.926  57.419  0.00  0.00    +0.000 A 
BRANCH  17  21
ATOM     21  O   UNL     1      35.613  58.675  53.437  0.00  0.00    +0.000 OA
ATOM     22  C   UNL     1      36.930  59.174  53.140  0.00  0.00    +0.000 C 
ENDBRANCH  17  21
BRANCH  18  23
ATOM     23  O   UNL     1      33.699  60.099  54.722  0.00  0.00    +0.000 OA
ATOM     24  C   UNL     1      34.142  61.450  54.710  0.00  0.00    +0.000 C 
ENDBRANCH  18  23
BRANCH  19  25
ATOM     25  O   UNL     1      33.111  59.670  57.314  0.00  0.00    +0.000 OA
ATOM     26  C   UNL     1      33.228  60.212  58.585  0.00  0.00    +0.000 C 
ENDBRANCH  19  25
ENDBRANCH   2  15
TORSDOF 8
ENDMDL
MODEL 2
REMARK VINA RESULT:      -6.0      0.542      2.453
REMARK  Name = 
REMARK  8 active torsions:
REMARK  status: ('A' for Active; 'I' for Inactive)
REMARK    1  A    between atoms: O_2  and  C_3
REMARK    2  A    between atoms: C_5  and  C_6
REMARK    3  A    between atoms: C_7  and  C_8
REMARK    4  A    between atoms: C_10  and  O_11
REMARK    5  A    between atoms: C_13  and  O_14
REMARK    6  A    between atoms: C_16  and  O_17
REMARK    7  A    between atoms: C_21  and  O_22
REMARK    8  A    between atoms: C_24  and  O_25
REMARK                            x       y       z     vdW  Elec       q    Type
REMARK                         _______ _______ _______ _____ _____    ______ ____
ROOT
ATOM      1  C   UNL     1      36.039  55.118  57.990  0.00  0.00    +0.000 C 
ATOM      2  C   UNL     1      36.608  56.166  57.448  0.00  0.00    +0.000 C 
ENDROOT
BRANCH   1   5
ATOM      3  C   UNL     1      38.778  53.376  59.865  0.00  0.00    +0.000 A 
ATOM      4  C   UNL     1      38.053  54.350  59.198  0.00  0.00    +0.000 A 
ATOM      5  C   UNL     1      36.805  54.079  58.694  0.00  0.00    +0.000 A 
ATOM      6  C   UNL     1      36.282  52.809  58.867  0.00  0.00    +0.000 A 
ATOM      7  C   UNL     1      37.009  51.828  59.538  0.00  0.00    +0.000 A 
ATOM      8  C   UNL     1      38.255  52.120  60.034  0.00  0.00    +0.000 A 
BRANCH   3  10
ATOM      9  C   UNL     1      40.235  54.511  61.477  0.00  0.00    +0.000 C 
ATOM     10  O   UNL     1      40.023  53.708  60.346  0.00  0.00    +0.000 OA
ENDBRANCH   3  10
BRANCH   7  11
ATOM     11  O   UNL     1      36.502  50.553  59.720  0.00  0.00    +0.000 OA
ATOM     12  C   UNL     1      35.374  50.264  60.508  0.00  0.00    +0.000 C 
ENDBRANCH   7  11
BRANCH   8  13
ATOM     13  O   UNL     1      38.953  51.129  60.695  0.00  0.00    +0.000 OA
ATOM     14  C   UNL     1      39.897  50.273  60.117  0.00  0.00    +0.000 C 
ENDBRANCH   8  13
ENDBRANCH   1   5
BRANCH   2  15
ATOM     15  C   UNL     1      35.804  57.192  56.745  0.00  0.00    +0.000 A 
ATOM     16  C   UNL     1      36.076  57.464  55.402  0.00  0.00    +0.000 A 
ATOM     17  C   UNL     1      35.358  58.403  54.724  0.00  0.00    +0.000 A 
ATOM     18  C   UNL     1      34.353  59.109  55.335  0.00  0.00    +0.000 A 
ATOM     19  C   UNL     1      34.054  58.859  56.686  0.00  0.00    +0.000 A 
ATOM     20  C   UNL     1      34.798  57.900  57.346  0.00  0.00    +0.000 A 
BRANCH  17  21
ATOM     21  O   UNL     1      35.573  58.730  53.373  0.00  0.00    +0.000 OA
ATOM     22  C   UNL     1      36.881  59.247  53.074  0.00  0.00    +0.000 C 
ENDBRANCH  17  21
BRANCH  18  23
ATOM     23  O   UNL     1      33.610  60.064  54.680  0.00  0.00    +0.000 OA
ATOM     24  C   UNL     1      33.984  61.435  54.710  0.00  0.00    +0.000 C 
ENDBRANCH  18  23
BRANCH  19  25
ATOM     25  O   UNL     1      33.044  59.580  57.267  0.00  0.00    +0.000 OA
ATOM     26  C   UNL     1      33.074  59.970  58.597  0.00  0.00    +0.000 C 
ENDBRANCH  19  25
ENDBRANCH   2  15
TORSDOF 8
ENDMDL
MODEL 3
REMARK VINA RESULT:      -6.0      0.261      2.463
REMARK  Name = 
REMARK  8 active torsions:
REMARK  status: ('A' for Active; 'I' for Inactive)
REMARK    1  A    between atoms: O_2  and  C_3
REMARK    2  A    between atoms: C_5  and  C_6
REMARK    3  A    between atoms: C_7  and  C_8
REMARK    4  A    between atoms: C_10  and  O_11
REMARK    5  A    between atoms: C_13  and  O_14
REMARK    6  A    between atoms: C_16  and  O_17
REMARK    7  A    between atoms: C_21  and  O_22
REMARK    8  A    between atoms: C_24  and  O_25
REMARK                            x       y       z     vdW  Elec       q    Type
REMARK                         _______ _______ _______ _____ _____    ______ ____
ROOT
ATOM      1  C   UNL     1      36.057  54.970  57.923  0.00  0.00    +0.000 C 
ATOM      2  C   UNL     1      36.510  56.188  57.756  0.00  0.00    +0.000 C 
ENDROOT
BRANCH   1   5
ATOM      3  C   UNL     1      36.911  51.780  59.695  0.00  0.00    +0.000 A 
ATOM      4  C   UNL     1      36.212  52.751  58.997  0.00  0.00    +0.000 A 
ATOM      5  C   UNL     1      36.803  53.945  58.667  0.00  0.00    +0.000 A 
ATOM      6  C   UNL     1      38.117  54.161  59.045  0.00  0.00    +0.000 A 
ATOM      7  C   UNL     1      38.823  53.185  59.747  0.00  0.00    +0.000 A 
ATOM      8  C   UNL     1      38.213  51.999  60.067  0.00  0.00    +0.000 A 
BRANCH   3  10
ATOM      9  C   UNL     1      34.872  50.492  60.140  0.00  0.00    +0.000 C 
ATOM     10  O   UNL     1      36.265  50.605  59.998  0.00  0.00    +0.000 OA
ENDBRANCH   3  10
BRANCH   7  11
ATOM     11  O   UNL     1      40.137  53.384  60.133  0.00  0.00    +0.000 OA
ATOM     12  C   UNL     1      41.236  53.256  59.264  0.00  0.00    +0.000 C 
ENDBRANCH   7  11
BRANCH   8  13
ATOM     13  O   UNL     1      38.936  51.050  60.762  0.00  0.00    +0.000 OA
ATOM     14  C   UNL     1      39.618  49.967  60.195  0.00  0.00    +0.000 C 
ENDBRANCH   8  13
ENDBRANCH   1   5
BRANCH   2  15
ATOM     15  C   UNL     1      35.732  57.195  57.000  0.00  0.00    +0.000 A 
ATOM     16  C   UNL     1      34.685  57.864  57.640  0.00  0.00    +0.000 A 
ATOM     17  C   UNL     1      33.946  58.795  56.973  0.00  0.00    +0.000 A 
ATOM     18  C   UNL     1      34.203  59.103  55.662  0.00  0.00    +0.000 A 
ATOM     19  C   UNL     1      35.249  58.448  54.990  0.00  0.00    +0.000 A 
ATOM     20  C   UNL     1      35.982  57.510  55.691  0.00  0.00    +0.000 A 
BRANCH  17  21
ATOM     21  O   UNL     1      32.879  59.508  57.551  0.00  0.00    +0.000 OA
ATOM     22  C   UNL     1      33.235  60.324  58.681  0.00  0.00    +0.000 C 
ENDBRANCH  17  21
BRANCH  18  23
ATOM     23  O   UNL     1      33.475  60.038  54.960  0.00  0.00    +0.000 OA
ATOM     24  C   UNL     1      33.856  61.407  54.949  0.00  0.00    +0.000 C 
ENDBRANCH  18  23
BRANCH  19  25
ATOM     25  O   UNL     1      35.481  58.779  53.680  0.00  0.00    +0.000 OA
ATOM     26  C   UNL     1      36.755  58.991  53.176  0.00  0.00    +0.000 C 
ENDBRANCH  19  25
ENDBRANCH   2  15
TORSDOF 8
ENDMDL
MODEL 4
REMARK VINA RESULT:      -5.9      0.185      9.100
REMARK  Name = 
REMARK  8 active torsions:
REMARK  status: ('A' for Active; 'I' for Inactive)
REMARK    1  A    between atoms: O_2  and  C_3
REMARK    2  A    between atoms: C_5  and  C_6
REMARK    3  A    between atoms: C_7  and  C_8
REMARK    4  A    between atoms: C_10  and  O_11
REMARK    5  A    between atoms: C_13  and  O_14
REMARK    6  A    between atoms: C_16  and  O_17
REMARK    7  A    between atoms: C_21  and  O_22
REMARK    8  A    between atoms: C_24  and  O_25
REMARK                            x       y       z     vdW  Elec       q    Type
REMARK                         _______ _______ _______ _____ _____    ______ ____
ROOT
ATOM      1  C   UNL     1      36.540  56.058  57.589  0.00  0.00    +0.000 C 
ATOM      2  C   UNL     1      35.942  54.996  58.069  0.00  0.00    +0.000 C 
ENDROOT
BRANCH   1   5
ATOM      3  C   UNL     1      35.392  58.380  54.880  0.00  0.00    +0.000 A 
ATOM      4  C   UNL     1      36.075  57.383  55.556  0.00  0.00    +0.000 A 
ATOM      5  C   UNL     1      35.813  57.119  56.877  0.00  0.00    +0.000 A 
ATOM      6  C   UNL     1      34.847  57.872  57.524  0.00  0.00    +0.000 A 
ATOM      7  C   UNL     1      34.158  58.875  56.846  0.00  0.00    +0.000 A 
ATOM      8  C   UNL     1      34.435  59.122  55.525  0.00  0.00    +0.000 A 
BRANCH   3  10
ATOM      9  C   UNL     1      36.926  59.119  53.116  0.00  0.00    +0.000 C 
ATOM     10  O   UNL     1      35.699  58.597  53.557  0.00  0.00    +0.000 OA
ENDBRANCH   3  10
BRANCH   7  11
ATOM     11  O   UNL     1      33.190  59.636  57.476  0.00  0.00    +0.000 OA
ATOM     12  C   UNL     1      33.476  60.701  58.351  0.00  0.00    +0.000 C 
ENDBRANCH   7  11
BRANCH   8  13
ATOM     13  O   UNL     1      33.737  60.121  54.877  0.00  0.00    +0.000 OA
ATOM     14  C   UNL     1      34.168  61.442  54.712  0.00  0.00    +0.000 C 
ENDBRANCH   8  13
ENDBRANCH   1   5
BRANCH   2  15
ATOM     15  C   UNL     1      36.706  53.946  58.780  0.00  0.00    +0.000 A 
ATOM     16  C   UNL     1      36.103  52.707  59.011  0.00  0.00    +0.000 A 
ATOM     17  C   UNL     1      36.777  51.718  59.664  0.00  0.00    +0.000 A 
ATOM     18  C   UNL     1      38.059  51.906  60.113  0.00  0.00    +0.000 A 
ATOM     19  C   UNL     1      38.694  53.141  59.896  0.00  0.00    +0.000 A 
ATOM     20  C   UNL     1      37.987  54.124  59.230  0.00  0.00    +0.000 A 
BRANCH  17  21
ATOM     21  O   UNL     1      36.236  50.447  59.932  0.00  0.00    +0.000 OA
ATOM     22  C   UNL     1      34.845  50.443  60.297  0.00  0.00    +0.000 C 
ENDBRANCH  17  21
BRANCH  18  23
ATOM     23  O   UNL     1      38.766  50.929  60.776  0.00  0.00    +0.000 OA
ATOM     24  C   UNL     1      39.543  49.974  60.066  0.00  0.00    +0.000 C 
ENDBRANCH  18  23
BRANCH  19  25
ATOM     25  O   UNL     1      39.976  53.297  60.357  0.00  0.00    +0.000 OA
ATOM     26  C   UNL     1      41.067  53.406  59.509  0.00  0.00    +0.000 C 
ENDBRANCH  19  25
ENDBRANCH   2  15
TORSDOF 8
ENDMDL
MODEL 5
REMARK VINA RESULT:      -5.9      0.298      8.981
REMARK  Name = 
REMARK  8 active torsions:
REMARK  status: ('A' for Active; 'I' for Inactive)
REMARK    1  A    between atoms: O_2  and  C_3
REMARK    2  A    between atoms: C_5  and  C_6
REMARK    3  A    between atoms: C_7  and  C_8
REMARK    4  A    between atoms: C_10  and  O_11
REMARK    5  A    between atoms: C_13  and  O_14
REMARK    6  A    between atoms: C_16  and  O_17
REMARK    7  A    between atoms: C_21  and  O_22
REMARK    8  A    between atoms: C_24  and  O_25
REMARK                            x       y       z     vdW  Elec       q    Type
REMARK                         _______ _______ _______ _____ _____    ______ ____
ROOT
ATOM      1  C   UNL     1      36.528  56.107  57.802  0.00  0.00    +0.000 C 
ATOM      2  C   UNL     1      36.087  54.887  57.981  0.00  0.00    +0.000 C 
ENDROOT
BRANCH   1   5
ATOM      3  C   UNL     1      34.052  58.792  56.960  0.00  0.00    +0.000 A 
ATOM      4  C   UNL     1      34.769  57.835  57.660  0.00  0.00    +0.000 A 
ATOM      5  C   UNL     1      35.770  57.119  57.053  0.00  0.00    +0.000 A 
ATOM      6  C   UNL     1      36.052  57.373  55.721  0.00  0.00    +0.000 A 
ATOM      7  C   UNL     1      35.333  58.335  55.015  0.00  0.00    +0.000 A 
ATOM      8  C   UNL     1      34.337  59.040  55.641  0.00  0.00    +0.000 A 
BRANCH   3  10
ATOM      9  C   UNL     1      33.302  60.527  58.521  0.00  0.00    +0.000 C 
ATOM     10  O   UNL     1      33.060  59.476  57.622  0.00  0.00    +0.000 OA
ENDBRANCH   3  10
BRANCH   7  11
ATOM     11  O   UNL     1      35.602  58.602  53.684  0.00  0.00    +0.000 OA
ATOM     12  C   UNL     1      36.837  59.087  53.216  0.00  0.00    +0.000 C 
ENDBRANCH   7  11
BRANCH   8  13
ATOM     13  O   UNL     1      33.641  59.988  54.917  0.00  0.00    +0.000 OA
ATOM     14  C   UNL     1      33.944  61.352  54.858  0.00  0.00    +0.000 C 
ENDBRANCH   8  13
ENDBRANCH   1   5
BRANCH   2  15
ATOM     15  C   UNL     1      36.880  53.893  58.741  0.00  0.00    +0.000 A 
ATOM     16  C   UNL     1      36.270  52.701  59.141  0.00  0.00    +0.000 A 
ATOM     17  C   UNL     1      36.968  51.766  59.843  0.00  0.00    +0.000 A 
ATOM     18  C   UNL     1      38.283  51.963  60.180  0.00  0.00    +0.000 A 
ATOM     19  C   UNL     1      38.926  53.151  59.793  0.00  0.00    +0.000 A 
ATOM     20  C   UNL     1      38.193  54.081  59.080  0.00  0.00    +0.000 A 
BRANCH  17  21
ATOM     21  O   UNL     1      36.423  50.544  60.279  0.00  0.00    +0.000 OA
ATOM     22  C   UNL     1      34.991  50.450  60.184  0.00  0.00    +0.000 C 
ENDBRANCH  17  21
BRANCH  18  23
ATOM     23  O   UNL     1      39.016  51.038  60.889  0.00  0.00    +0.000 OA
ATOM     24  C   UNL     1      39.700  49.981  60.230  0.00  0.00    +0.000 C 
ENDBRANCH  18  23
BRANCH  19  25
ATOM     25  O   UNL     1      40.241  53.317  60.145  0.00  0.00    +0.000 OA
ATOM     26  C   UNL     1      41.278  53.208  59.231  0.00  0.00    +0.000 C 
ENDBRANCH  19  25
ENDBRANCH   2  15
TORSDOF 8
ENDMDL
MODEL 6
REMARK VINA RESULT:      -5.9      0.633      8.851
REMARK  Name = 
REMARK  8 active torsions:
REMARK  status: ('A' for Active; 'I' for Inactive)
REMARK    1  A    between atoms: O_2  and  C_3
REMARK    2  A    between atoms: C_5  and  C_6
REMARK    3  A    between atoms: C_7  and  C_8
REMARK    4  A    between atoms: C_10  and  O_11
REMARK    5  A    between atoms: C_13  and  O_14
REMARK    6  A    between atoms: C_16  and  O_17
REMARK    7  A    between atoms: C_21  and  O_22
REMARK    8  A    between atoms: C_24  and  O_25
REMARK                            x       y       z     vdW  Elec       q    Type
REMARK                         _______ _______ _______ _____ _____    ______ ____
ROOT
ATOM      1  C   UNL     1      36.521  56.156  57.602  0.00  0.00    +0.000 C 
ATOM      2  C   UNL     1      36.006  55.021  58.003  0.00  0.00    +0.000 C 
ENDROOT
BRANCH   1   5
ATOM      3  C   UNL     1      33.954  58.774  56.821  0.00  0.00    +0.000 A 
ATOM      4  C   UNL     1      34.695  57.817  57.495  0.00  0.00    +0.000 A 
ATOM      5  C   UNL     1      35.736  57.168  56.880  0.00  0.00    +0.000 A 
ATOM      6  C   UNL     1      36.034  57.490  55.567  0.00  0.00    +0.000 A 
ATOM      7  C   UNL     1      35.291  58.452  54.886  0.00  0.00    +0.000 A 
ATOM      8  C   UNL     1      34.254  59.089  55.520  0.00  0.00    +0.000 A 
BRANCH   3  10
ATOM      9  C   UNL     1      33.104  60.251  58.583  0.00  0.00    +0.000 C 
ATOM     10  O   UNL     1      32.923  59.388  57.490  0.00  0.00    +0.000 OA
ENDBRANCH   3  10
BRANCH   7  11
ATOM     11  O   UNL     1      35.575  58.786  53.574  0.00  0.00    +0.000 OA
ATOM     12  C   UNL     1      36.830  59.247  53.136  0.00  0.00    +0.000 C 
ENDBRANCH   7  11
BRANCH   8  13
ATOM     13  O   UNL     1      33.535  60.038  54.822  0.00  0.00    +0.000 OA
ATOM     14  C   UNL     1      33.741  61.421  54.877  0.00  0.00    +0.000 C 
ENDBRANCH   8  13
ENDBRANCH   1   5
BRANCH   2  15
ATOM     15  C   UNL     1      36.827  54.024  58.728  0.00  0.00    +0.000 A 
ATOM     16  C   UNL     1      38.089  54.396  59.195  0.00  0.00    +0.000 A 
ATOM     17  C   UNL     1      38.873  53.503  59.864  0.00  0.00    +0.000 A 
ATOM     18  C   UNL     1      38.451  52.219  60.097  0.00  0.00    +0.000 A 
ATOM     19  C   UNL     1      37.185  51.814  59.640  0.00  0.00    +0.000 A 
ATOM     20  C   UNL     1      36.413  52.740  58.966  0.00  0.00    +0.000 A 
BRANCH  17  21
ATOM     21  O   UNL     1      40.153  53.805  60.365  0.00  0.00    +0.000 OA
ATOM     22  C   UNL     1      40.167  54.654  61.525  0.00  0.00    +0.000 C 
ENDBRANCH  17  21
BRANCH  18  23
ATOM     23  O   UNL     1      39.218  51.294  60.768  0.00  0.00    +0.000 OA
ATOM     24  C   UNL     1      40.113  50.438  60.072  0.00  0.00    +0.000 C 
ENDBRANCH  18  23
BRANCH  19  25
ATOM     25  O   UNL     1      36.793  50.524  59.889  0.00  0.00    +0.000 OA
ATOM     26  C   UNL     1      35.620  50.216  60.561  0.00  0.00    +0.000 C 
ENDBRANCH  19  25
ENDBRANCH   2  15
TORSDOF 8
ENDMDL
MODEL 7
REMARK VINA RESULT:      -5.9      0.170      3.503
REMARK  Name = 
REMARK  8 active torsions:
REMARK  status: ('A' for Active; 'I' for Inactive)
REMARK    1  A    between atoms: O_2  and  C_3
REMARK    2  A    between atoms: C_5  and  C_6
REMARK    3  A    between atoms: C_7  and  C_8
REMARK    4  A    between atoms: C_10  and  O_11
REMARK    5  A    between atoms: C_13  and  O_14
REMARK    6  A    between atoms: C_16  and  O_17
REMARK    7  A    between atoms: C_21  and  O_22
REMARK    8  A    between atoms: C_24  and  O_25
REMARK                            x       y       z     vdW  Elec       q    Type
REMARK                         _______ _______ _______ _____ _____    ______ ____
ROOT
ATOM      1  C   UNL     1      35.900  55.067  57.952  0.00  0.00    +0.000 C 
ATOM      2  C   UNL     1      36.492  56.155  57.526  0.00  0.00    +0.000 C 
ENDROOT
BRANCH   1   5
ATOM      3  C   UNL     1      38.569  53.220  59.826  0.00  0.00    +0.000 A 
ATOM      4  C   UNL     1      37.886  54.218  59.150  0.00  0.00    +0.000 A 
ATOM      5  C   UNL     1      36.620  54.003  58.666  0.00  0.00    +0.000 A 
ATOM      6  C   UNL     1      36.035  52.764  58.867  0.00  0.00    +0.000 A 
ATOM      7  C   UNL     1      36.719  51.759  59.547  0.00  0.00    +0.000 A 
ATOM      8  C   UNL     1      37.984  51.995  60.024  0.00  0.00    +0.000 A 
BRANCH   3  10
ATOM      9  C   UNL     1      40.989  53.423  59.492  0.00  0.00    +0.000 C 
ATOM     10  O   UNL     1      39.834  53.496  60.287  0.00  0.00    +0.000 OA
ENDBRANCH   3  10
BRANCH   7  11
ATOM     11  O   UNL     1      36.151  50.515  59.758  0.00  0.00    +0.000 OA
ATOM     12  C   UNL     1      35.083  50.282  60.644  0.00  0.00    +0.000 C 
ENDBRANCH   7  11
BRANCH   8  13
ATOM     13  O   UNL     1      38.639  50.981  60.695  0.00  0.00    +0.000 OA
ATOM     14  C   UNL     1      39.489  50.035  60.112  0.00  0.00    +0.000 C 
ENDBRANCH   8  13
ENDBRANCH   1   5
BRANCH   2  15
ATOM     15  C   UNL     1      35.734  57.206  56.809  0.00  0.00    +0.000 A 
ATOM     16  C   UNL     1      34.694  57.863  57.470  0.00  0.00    +0.000 A 
ATOM     17  C   UNL     1      33.974  58.833  56.840  0.00  0.00    +0.000 A 
ATOM     18  C   UNL     1      34.245  59.193  55.545  0.00  0.00    +0.000 A 
ATOM     19  C   UNL     1      35.285  58.551  54.852  0.00  0.00    +0.000 A 
ATOM     20  C   UNL     1      35.998  57.572  55.516  0.00  0.00    +0.000 A 
BRANCH  17  21
ATOM     21  O   UNL     1      32.915  59.538  57.441  0.00  0.00    +0.000 OA
ATOM     22  C   UNL     1      33.185  60.028  58.766  0.00  0.00    +0.000 C 
ENDBRANCH  17  21
BRANCH  18  23
ATOM     23  O   UNL     1      33.536  60.169  54.880  0.00  0.00    +0.000 OA
ATOM     24  C   UNL     1      33.926  61.534  54.947  0.00  0.00    +0.000 C 
ENDBRANCH  18  23
BRANCH  19  25
ATOM     25  O   UNL     1      35.530  58.934  53.558  0.00  0.00    +0.000 OA
ATOM     26  C   UNL     1      36.812  59.115  53.063  0.00  0.00    +0.000 C 
ENDBRANCH  19  25
ENDBRANCH   2  15
TORSDOF 8
ENDMDL
MODEL 8
REMARK VINA RESULT:      -5.9      0.500      8.927
REMARK  Name = 
REMARK  8 active torsions:
REMARK  status: ('A' for Active; 'I' for Inactive)
REMARK    1  A    between atoms: O_2  and  C_3
REMARK    2  A    between atoms: C_5  and  C_6
REMARK    3  A    between atoms: C_7  and  C_8
REMARK    4  A    between atoms: C_10  and  O_11
REMARK    5  A    between atoms: C_13  and  O_14
REMARK    6  A    between atoms: C_16  and  O_17
REMARK    7  A    between atoms: C_21  and  O_22
REMARK    8  A    between atoms: C_24  and  O_25
REMARK                            x       y       z     vdW  Elec       q    Type
REMARK                         _______ _______ _______ _____ _____    ______ ____
ROOT
ATOM      1  C   UNL     1      36.561  56.015  57.682  0.00  0.00    +0.000 C 
ATOM      2  C   UNL     1      36.014  54.871  58.010  0.00  0.00    +0.000 C 
ENDROOT
BRANCH   1   5
ATOM      3  C   UNL     1      35.438  58.289  54.922  0.00  0.00    +0.000 A 
ATOM      4  C   UNL     1      36.123  57.312  55.625  0.00  0.00    +0.000 A 
ATOM      5  C   UNL     1      35.833  57.056  56.942  0.00  0.00    +0.000 A 
ATOM      6  C   UNL     1      34.837  57.795  57.557  0.00  0.00    +0.000 A 
ATOM      7  C   UNL     1      34.146  58.778  56.852  0.00  0.00    +0.000 A 
ATOM      8  C   UNL     1      34.452  59.018  55.536  0.00  0.00    +0.000 A 
BRANCH   3  10
ATOM      9  C   UNL     1      36.891  59.245  53.194  0.00  0.00    +0.000 C 
ATOM     10  O   UNL     1      35.775  58.500  53.606  0.00  0.00    +0.000 OA
ENDBRANCH   3  10
BRANCH   7  11
ATOM     11  O   UNL     1      33.148  59.527  57.450  0.00  0.00    +0.000 OA
ATOM     12  C   UNL     1      33.244  60.070  58.745  0.00  0.00    +0.000 C 
ENDBRANCH   7  11
BRANCH   8  13
ATOM     13  O   UNL     1      33.751  59.998  54.861  0.00  0.00    +0.000 OA
ATOM     14  C   UNL     1      34.130  61.340  54.748  0.00  0.00    +0.000 C 
ENDBRANCH   8  13
ENDBRANCH   1   5
BRANCH   2  15
ATOM     15  C   UNL     1      36.779  53.845  58.755  0.00  0.00    +0.000 A 
ATOM     16  C   UNL     1      38.175  53.890  58.731  0.00  0.00    +0.000 A 
ATOM     17  C   UNL     1      38.911  52.960  59.404  0.00  0.00    +0.000 A 
ATOM     18  C   UNL     1      38.309  51.957  60.120  0.00  0.00    +0.000 A 
ATOM     19  C   UNL     1      36.906  51.885  60.165  0.00  0.00    +0.000 A 
ATOM     20  C   UNL     1      36.186  52.842  59.474  0.00  0.00    +0.000 A 
BRANCH  17  21
ATOM     21  O   UNL     1      40.318  52.941  59.426  0.00  0.00    +0.000 OA
ATOM     22  C   UNL     1      40.940  52.582  58.180  0.00  0.00    +0.000 C 
ENDBRANCH  17  21
BRANCH  18  23
ATOM     23  O   UNL     1      39.023  51.003  60.809  0.00  0.00    +0.000 OA
ATOM     24  C   UNL     1      39.389  49.774  60.196  0.00  0.00    +0.000 C 
ENDBRANCH  18  23
BRANCH  19  25
ATOM     25  O   UNL     1      36.335  50.871  60.890  0.00  0.00    +0.000 OA
ATOM     26  C   UNL     1      35.161  50.245  60.502  0.00  0.00    +0.000 C 
ENDBRANCH  19  25
ENDBRANCH   2  15
TORSDOF 8
ENDMDL
MODEL 9
REMARK VINA RESULT:      -5.8      1.998      9.161
REMARK  Name = 
REMARK  8 active torsions:
REMARK  status: ('A' for Active; 'I' for Inactive)
REMARK    1  A    between atoms: O_2  and  C_3
REMARK    2  A    between atoms: C_5  and  C_6
REMARK    3  A    between atoms: C_7  and  C_8
REMARK    4  A    between atoms: C_10  and  O_11
REMARK    5  A    between atoms: C_13  and  O_14
REMARK    6  A    between atoms: C_16  and  O_17
REMARK    7  A    between atoms: C_21  and  O_22
REMARK    8  A    between atoms: C_24  and  O_25
REMARK                            x       y       z     vdW  Elec       q    Type
REMARK                         _______ _______ _______ _____ _____    ______ ____
ROOT
ATOM      1  C   UNL     1      36.122  56.859  56.691  0.00  0.00    +0.000 C 
ATOM      2  C   UNL     1      36.203  56.467  57.939  0.00  0.00    +0.000 C 
ENDROOT
BRANCH   1   5
ATOM      3  C   UNL     1      36.566  60.554  56.244  0.00  0.00    +0.000 A 
ATOM      4  C   UNL     1      36.796  59.234  56.597  0.00  0.00    +0.000 A 
ATOM      5  C   UNL     1      35.872  58.258  56.317  0.00  0.00    +0.000 A 
ATOM      6  C   UNL     1      34.701  58.620  55.673  0.00  0.00    +0.000 A 
ATOM      7  C   UNL     1      34.468  59.946  55.317  0.00  0.00    +0.000 A 
ATOM      8  C   UNL     1      35.405  60.906  55.605  0.00  0.00    +0.000 A 
BRANCH   3  10
ATOM      9  C   UNL     1      38.890  61.180  56.712  0.00  0.00    +0.000 C 
ATOM     10  O   UNL     1      37.529  61.486  56.552  0.00  0.00    +0.000 OA
ENDBRANCH   3  10
BRANCH   7  11
ATOM     11  O   UNL     1      33.303  60.326  54.672  0.00  0.00    +0.000 OA
ATOM     12  C   UNL     1      32.061  60.467  55.317  0.00  0.00    +0.000 C 
ENDBRANCH   7  11
BRANCH   8  13
ATOM     13  O   UNL     1      35.148  62.213  55.240  0.00  0.00    +0.000 OA
ATOM     14  C   UNL     1      35.465  62.792  54.006  0.00  0.00    +0.000 C 
ENDBRANCH   8  13
ENDBRANCH   1   5
BRANCH   2  15
ATOM     15  C   UNL     1      36.455  55.048  58.278  0.00  0.00    +0.000 A 
ATOM     16  C   UNL     1      35.371  54.175  58.394  0.00  0.00    +0.000 A 
ATOM     17  C   UNL     1      35.567  52.863  58.707  0.00  0.00    +0.000 A 
ATOM     18  C   UNL     1      36.826  52.361  58.919  0.00  0.00    +0.000 A 
ATOM     19  C   UNL     1      37.938  53.214  58.810  0.00  0.00    +0.000 A 
ATOM     20  C   UNL     1      37.709  54.539  58.490  0.00  0.00    +0.000 A 
BRANCH  17  21
ATOM     21  O   UNL     1      34.526  51.925  58.840  0.00  0.00    +0.000 OA
ATOM     22  C   UNL     1      33.209  52.437  58.571  0.00  0.00    +0.000 C 
ENDBRANCH  17  21
BRANCH  18  23
ATOM     23  O   UNL     1      37.057  51.042  59.237  0.00  0.00    +0.000 OA
ATOM     24  C   UNL     1      36.971  50.584  60.580  0.00  0.00    +0.000 C 
ENDBRANCH  18  23
BRANCH  19  25
ATOM     25  O   UNL     1      39.182  52.681  59.027  0.00  0.00    +0.000 OA
ATOM     26  C   UNL     1      40.116  52.526  58.014  0.00  0.00    +0.000 C 
ENDBRANCH  19  25
ENDBRANCH   2  15
TORSDOF 8
ENDMDL
MODEL 10
REMARK VINA RESULT:      -5.7      2.102      2.526
REMARK  Name = 
REMARK  8 active torsions:
REMARK  status: ('A' for Active; 'I' for Inactive)
REMARK    1  A    between atoms: O_2  and  C_3
REMARK    2  A    between atoms: C_5  and  C_6
REMARK    3  A    between atoms: C_7  and  C_8
REMARK    4  A    between atoms: C_10  and  O_11
REMARK    5  A    between atoms: C_13  and  O_14
REMARK    6  A    between atoms: C_16  and  O_17
REMARK    7  A    between atoms: C_21  and  O_22
REMARK    8  A    between atoms: C_24  and  O_25
REMARK                            x       y       z     vdW  Elec       q    Type
REMARK                         _______ _______ _______ _____ _____    ______ ____
ROOT
ATOM      1  C   UNL     1      36.379  56.320  57.948  0.00  0.00    +0.000 C 
ATOM      2  C   UNL     1      36.092  56.715  56.732  0.00  0.00    +0.000 C 
ENDROOT
BRANCH   1   5
ATOM      3  C   UNL     1      35.594  52.737  58.720  0.00  0.00    +0.000 A 
ATOM      4  C   UNL     1      35.449  54.075  58.391  0.00  0.00    +0.000 A 
ATOM      5  C   UNL     1      36.540  54.902  58.300  0.00  0.00    +0.000 A 
ATOM      6  C   UNL     1      37.796  54.372  58.543  0.00  0.00    +0.000 A 
ATOM      7  C   UNL     1      37.945  53.027  58.874  0.00  0.00    +0.000 A 
ATOM      8  C   UNL     1      36.841  52.217  58.959  0.00  0.00    +0.000 A 
BRANCH   3  10
ATOM      9  C   UNL     1      33.160  52.458  58.645  0.00  0.00    +0.000 C 
ATOM     10  O   UNL     1      34.464  51.960  58.797  0.00  0.00    +0.000 OA
ENDBRANCH   3  10
BRANCH   7  11
ATOM     11  O   UNL     1      39.192  52.479  59.120  0.00  0.00    +0.000 OA
ATOM     12  C   UNL     1      40.280  52.576  58.232  0.00  0.00    +0.000 C 
ENDBRANCH   7  11
BRANCH   8  13
ATOM     13  O   UNL     1      37.018  50.888  59.288  0.00  0.00    +0.000 OA
ATOM     14  C   UNL     1      36.911  50.344  60.573  0.00  0.00    +0.000 C 
ENDBRANCH   8  13
ENDBRANCH   1   5
BRANCH   2  15
ATOM     15  C   UNL     1      35.936  58.153  56.413  0.00  0.00    +0.000 A 
ATOM     16  C   UNL     1      36.872  59.063  56.909  0.00  0.00    +0.000 A 
ATOM     17  C   UNL     1      36.758  60.393  56.637  0.00  0.00    +0.000 A 
ATOM     18  C   UNL     1      35.727  60.879  55.875  0.00  0.00    +0.000 A 
ATOM     19  C   UNL     1      34.769  59.989  55.361  0.00  0.00    +0.000 A 
ATOM     20  C   UNL     1      34.910  58.646  55.651  0.00  0.00    +0.000 A 
BRANCH  17  21
ATOM     21  O   UNL     1      37.661  61.368  57.101  0.00  0.00    +0.000 OA
ATOM     22  C   UNL     1      38.881  60.850  57.660  0.00  0.00    +0.000 C 
ENDBRANCH  17  21
BRANCH  18  23
ATOM     23  O   UNL     1      35.583  62.217  55.583  0.00  0.00    +0.000 OA
ATOM     24  C   UNL     1      36.171  62.782  54.419  0.00  0.00    +0.000 C 
ENDBRANCH  18  23
BRANCH  19  25
ATOM     25  O   UNL     1      33.751  60.506  54.602  0.00  0.00    +0.000 OA
ATOM     26  C   UNL     1      32.434  60.530  55.035  0.00  0.00    +0.000 C 
ENDBRANCH  19  25
ENDBRANCH   2  15
TORSDOF 8
ENDMDL
