MODEL 1
REMARK VINA RESULT:      -6.8      0.000      0.000
REMARK  Name = 
REMARK  5 active torsions:
REMARK  status: ('A' for Active; 'I' for Inactive)
REMARK    1  A    between atoms: O_2  and  C_3
REMARK    2  A    between atoms: C_6  and  C_7
REMARK    3  A    between atoms: C_8  and  C_9
REMARK    4  A    between atoms: C_11  and  O_12
REMARK    5  A    between atoms: C_16  and  O_17
REMARK                            x       y       z     vdW  Elec       q    Type
REMARK                         _______ _______ _______ _____ _____    ______ ____
ROOT
ATOM      1  C   UNL     1      36.157  55.201  59.643  0.00  0.00    +0.000 A 
ATOM      2  C   UNL     1      37.503  55.026  59.923  0.00  0.00    +0.000 A 
ATOM      3  C   UNL     1      37.946  54.083  60.805  0.00  0.00    +0.000 A 
ATOM      4  C   UNL     1      37.005  53.288  61.430  0.00  0.00    +0.000 A 
ATOM      5  C   UNL     1      35.656  53.422  61.187  0.00  0.00    +0.000 A 
ATOM      6  C   UNL     1      35.252  54.383  60.290  0.00  0.00    +0.000 A 
ATOM      7  O   UNL     1      34.930  52.508  61.938  0.00  0.00    +0.000 OA
ATOM      8  C   UNL     1      35.844  51.918  62.856  0.00  0.00    +0.000 C 
ATOM      9  O   UNL     1      37.143  52.264  62.358  0.00  0.00    +0.000 OA
ENDROOT
BRANCH   1  11
ATOM     10  C   UNL     1      36.295  56.253  57.490  0.00  0.00    +0.000 C 
ATOM     11  C   UNL     1      35.735  56.227  58.687  0.00  0.00    +0.000 C 
BRANCH  10  15
ATOM     12  C   UNL     1      35.155  59.189  54.606  0.00  0.00    +0.000 A 
ATOM     13  C   UNL     1      34.528  59.093  55.821  0.00  0.00    +0.000 A 
ATOM     14  C   UNL     1      34.871  58.155  56.780  0.00  0.00    +0.000 A 
ATOM     15  C   UNL     1      35.894  57.274  56.497  0.00  0.00    +0.000 A 
ATOM     16  C   UNL     1      36.544  57.347  55.278  0.00  0.00    +0.000 A 
ATOM     17  C   UNL     1      36.174  58.299  54.343  0.00  0.00    +0.000 A 
ATOM     18  O   UNL     1      36.807  58.397  53.111  0.00  0.00    +0.000 OA
BRANCH  12  20
ATOM     19  C   UNL     1      35.273  61.470  53.766  0.00  0.00    +0.000 C 
ATOM     20  O   UNL     1      34.804  60.141  53.639  0.00  0.00    +0.000 OA
ENDBRANCH  12  20
ENDBRANCH  10  15
ENDBRANCH   1  11
BRANCH   3  21
ATOM     21  O   UNL     1      39.278  53.873  61.115  0.00  0.00    +0.000 OA
ATOM     22  C   UNL     1      40.226  53.975  60.061  0.00  0.00    +0.000 C 
ENDBRANCH   3  21
BRANCH   6  23
ATOM     23  O   UNL     1      33.899  54.527  60.039  0.00  0.00    +0.000 OA
ATOM     24  C   UNL     1      33.216  53.625  59.178  0.00  0.00    +0.000 C 
ENDBRANCH   6  23
TORSDOF 5
ENDMDL
MODEL 2
REMARK VINA RESULT:      -6.8      1.967      2.125
REMARK  Name = 
REMARK  5 active torsions:
REMARK  status: ('A' for Active; 'I' for Inactive)
REMARK    1  A    between atoms: O_2  and  C_3
REMARK    2  A    between atoms: C_6  and  C_7
REMARK    3  A    between atoms: C_8  and  C_9
REMARK    4  A    between atoms: C_11  and  O_12
REMARK    5  A    between atoms: C_16  and  O_17
REMARK                            x       y       z     vdW  Elec       q    Type
REMARK                         _______ _______ _______ _____ _____    ______ ____
ROOT
ATOM      1  C   UNL     1      36.822  54.645  58.629  0.00  0.00    +0.000 A 
ATOM      2  C   UNL     1      38.020  54.989  59.233  0.00  0.00    +0.000 A 
ATOM      3  C   UNL     1      38.859  54.055  59.769  0.00  0.00    +0.000 A 
ATOM      4  C   UNL     1      38.482  52.728  59.697  0.00  0.00    +0.000 A 
ATOM      5  C   UNL     1      37.302  52.334  59.107  0.00  0.00    +0.000 A 
ATOM      6  C   UNL     1      36.486  53.306  58.579  0.00  0.00    +0.000 A 
ATOM      7  O   UNL     1      37.162  50.955  59.167  0.00  0.00    +0.000 OA
ATOM      8  C   UNL     1      38.195  50.477  60.022  0.00  0.00    +0.000 C 
ATOM      9  O   UNL     1      39.110  51.573  60.142  0.00  0.00    +0.000 OA
ENDROOT
BRANCH   1  11
ATOM     10  C   UNL     1      36.420  56.438  57.085  0.00  0.00    +0.000 C 
ATOM     11  C   UNL     1      35.958  55.686  58.069  0.00  0.00    +0.000 C 
BRANCH  10  15
ATOM     12  C   UNL     1      33.998  59.499  55.352  0.00  0.00    +0.000 A 
ATOM     13  C   UNL     1      33.817  59.085  56.646  0.00  0.00    +0.000 A 
ATOM     14  C   UNL     1      34.583  58.096  57.241  0.00  0.00    +0.000 A 
ATOM     15  C   UNL     1      35.576  57.500  56.493  0.00  0.00    +0.000 A 
ATOM     16  C   UNL     1      35.781  57.897  55.184  0.00  0.00    +0.000 A 
ATOM     17  C   UNL     1      34.995  58.889  54.623  0.00  0.00    +0.000 A 
ATOM     18  O   UNL     1      35.177  59.310  53.311  0.00  0.00    +0.000 OA
BRANCH  12  20
ATOM     19  C   UNL     1      31.842  60.590  55.066  0.00  0.00    +0.000 C 
ATOM     20  O   UNL     1      33.219  60.500  54.755  0.00  0.00    +0.000 OA
ENDBRANCH  12  20
ENDBRANCH  10  15
ENDBRANCH   1  11
BRANCH   3  21
ATOM     21  O   UNL     1      40.065  54.352  60.381  0.00  0.00    +0.000 OA
ATOM     22  C   UNL     1      40.029  54.790  61.732  0.00  0.00    +0.000 C 
ENDBRANCH   3  21
BRANCH   6  23
ATOM     23  O   UNL     1      35.297  52.922  57.985  0.00  0.00    +0.000 OA
ATOM     24  C   UNL     1      34.156  52.605  58.771  0.00  0.00    +0.000 C 
ENDBRANCH   6  23
TORSDOF 5
ENDMDL
MODEL 3
REMARK VINA RESULT:      -6.5      1.682      1.688
REMARK  Name = 
REMARK  5 active torsions:
REMARK  status: ('A' for Active; 'I' for Inactive)
REMARK    1  A    between atoms: O_2  and  C_3
REMARK    2  A    between atoms: C_6  and  C_7
REMARK    3  A    between atoms: C_8  and  C_9
REMARK    4  A    between atoms: C_11  and  O_12
REMARK    5  A    between atoms: C_16  and  O_17
REMARK                            x       y       z     vdW  Elec       q    Type
REMARK                         _______ _______ _______ _____ _____    ______ ____
ROOT
ATOM      1  C   UNL     1      36.535  54.475  58.500  0.00  0.00    +0.000 A 
ATOM      2  C   UNL     1      37.903  54.320  58.654  0.00  0.00    +0.000 A 
ATOM      3  C   UNL     1      38.452  53.184  59.175  0.00  0.00    +0.000 A 
ATOM      4  C   UNL     1      37.598  52.169  59.556  0.00  0.00    +0.000 A 
ATOM      5  C   UNL     1      36.232  52.273  59.424  0.00  0.00    +0.000 A 
ATOM      6  C   UNL     1      35.719  53.433  58.894  0.00  0.00    +0.000 A 
ATOM      7  O   UNL     1      35.607  51.119  59.879  0.00  0.00    +0.000 OA
ATOM      8  C   UNL     1      36.608  50.341  60.526  0.00  0.00    +0.000 C 
ATOM      9  O   UNL     1      37.852  50.919  60.108  0.00  0.00    +0.000 OA
ENDROOT
BRANCH   1  11
ATOM     10  C   UNL     1      36.482  56.156  56.787  0.00  0.00    +0.000 C 
ATOM     11  C   UNL     1      35.996  55.714  57.934  0.00  0.00    +0.000 C 
BRANCH  10  15
ATOM     12  C   UNL     1      34.989  59.747  55.021  0.00  0.00    +0.000 A 
ATOM     13  C   UNL     1      34.914  59.524  56.372  0.00  0.00    +0.000 A 
ATOM     14  C   UNL     1      35.388  58.373  56.979  0.00  0.00    +0.000 A 
ATOM     15  C   UNL     1      35.962  57.403  56.184  0.00  0.00    +0.000 A 
ATOM     16  C   UNL     1      36.051  57.601  54.818  0.00  0.00    +0.000 A 
ATOM     17  C   UNL     1      35.567  58.765  54.246  0.00  0.00    +0.000 A 
ATOM     18  O   UNL     1      35.641  58.992  52.877  0.00  0.00    +0.000 OA
BRANCH  12  20
ATOM     19  C   UNL     1      33.640  61.769  55.132  0.00  0.00    +0.000 C 
ATOM     20  O   UNL     1      34.508  60.914  54.412  0.00  0.00    +0.000 OA
ENDBRANCH  12  20
ENDBRANCH  10  15
ENDBRANCH   1  11
BRANCH   3  21
ATOM     21  O   UNL     1      39.812  52.986  59.347  0.00  0.00    +0.000 OA
ATOM     22  C   UNL     1      40.571  52.600  58.210  0.00  0.00    +0.000 C 
ENDBRANCH   3  21
BRANCH   6  23
ATOM     23  O   UNL     1      34.347  53.548  58.757  0.00  0.00    +0.000 OA
ATOM     24  C   UNL     1      33.538  53.977  59.844  0.00  0.00    +0.000 C 
ENDBRANCH   6  23
TORSDOF 5
ENDMDL
MODEL 4
REMARK VINA RESULT:      -6.1      1.892      8.838
REMARK  Name = 
REMARK  5 active torsions:
REMARK  status: ('A' for Active; 'I' for Inactive)
REMARK    1  A    between atoms: O_2  and  C_3
REMARK    2  A    between atoms: C_6  and  C_7
REMARK    3  A    between atoms: C_8  and  C_9
REMARK    4  A    between atoms: C_11  and  O_12
REMARK    5  A    between atoms: C_16  and  O_17
REMARK                            x       y       z     vdW  Elec       q    Type
REMARK                         _______ _______ _______ _____ _____    ______ ____
ROOT
ATOM      1  C   UNL     1      34.935  58.794  56.303  0.00  0.00    +0.000 A 
ATOM      2  C   UNL     1      33.677  59.243  56.668  0.00  0.00    +0.000 A 
ATOM      3  C   UNL     1      33.150  60.405  56.181  0.00  0.00    +0.000 A 
ATOM      4  C   UNL     1      33.913  61.141  55.297  0.00  0.00    +0.000 A 
ATOM      5  C   UNL     1      35.169  60.738  54.902  0.00  0.00    +0.000 A 
ATOM      6  C   UNL     1      35.662  59.562  55.416  0.00  0.00    +0.000 A 
ATOM      7  O   UNL     1      35.719  61.652  54.014  0.00  0.00    +0.000 OA
ATOM      8  C   UNL     1      34.862  62.789  54.015  0.00  0.00    +0.000 C 
ATOM      9  O   UNL     1      33.655  62.340  54.645  0.00  0.00    +0.000 OA
ENDROOT
BRANCH   1  11
ATOM     10  C   UNL     1      35.064  57.162  58.059  0.00  0.00    +0.000 C 
ATOM     11  C   UNL     1      35.454  57.540  56.854  0.00  0.00    +0.000 C 
BRANCH  10  15
ATOM     12  C   UNL     1      36.490  53.521  59.776  0.00  0.00    +0.000 A 
ATOM     13  C   UNL     1      37.191  54.178  58.799  0.00  0.00    +0.000 A 
ATOM     14  C   UNL     1      36.760  55.360  58.220  0.00  0.00    +0.000 A 
ATOM     15  C   UNL     1      35.566  55.901  58.649  0.00  0.00    +0.000 A 
ATOM     16  C   UNL     1      34.837  55.259  59.634  0.00  0.00    +0.000 A 
ATOM     17  C   UNL     1      35.300  54.079  60.190  0.00  0.00    +0.000 A 
ATOM     18  O   UNL     1      34.590  53.411  61.180  0.00  0.00    +0.000 OA
BRANCH  12  20
ATOM     19  C   UNL     1      37.996  51.610  59.761  0.00  0.00    +0.000 C 
ATOM     20  O   UNL     1      36.931  52.325  60.358  0.00  0.00    +0.000 OA
ENDBRANCH  12  20
ENDBRANCH  10  15
ENDBRANCH   1  11
BRANCH   3  21
ATOM     21  O   UNL     1      31.898  60.892  56.518  0.00  0.00    +0.000 OA
ATOM     22  C   UNL     1      30.783  60.418  55.776  0.00  0.00    +0.000 C 
ENDBRANCH   3  21
BRANCH   6  23
ATOM     23  O   UNL     1      36.924  59.148  55.026  0.00  0.00    +0.000 OA
ATOM     24  C   UNL     1      37.125  58.493  53.781  0.00  0.00    +0.000 C 
ENDBRANCH   6  23
TORSDOF 5
ENDMDL
MODEL 5
REMARK VINA RESULT:      -6.1      1.929      8.048
REMARK  Name = 
REMARK  5 active torsions:
REMARK  status: ('A' for Active; 'I' for Inactive)
REMARK    1  A    between atoms: O_2  and  C_3
REMARK    2  A    between atoms: C_6  and  C_7
REMARK    3  A    between atoms: C_8  and  C_9
REMARK    4  A    between atoms: C_11  and  O_12
REMARK    5  A    between atoms: C_16  and  O_17
REMARK                            x       y       z     vdW  Elec       q    Type
REMARK                         _______ _______ _______ _____ _____    ______ ____
ROOT
ATOM      1  C   UNL     1      35.773  57.338  57.106  0.00  0.00    +0.000 A 
ATOM      2  C   UNL     1      36.255  57.374  55.808  0.00  0.00    +0.000 A 
ATOM      3  C   UNL     1      35.682  58.148  54.840  0.00  0.00    +0.000 A 
ATOM      4  C   UNL     1      34.586  58.912  55.187  0.00  0.00    +0.000 A 
ATOM      5  C   UNL     1      34.068  58.912  56.463  0.00  0.00    +0.000 A 
ATOM      6  C   UNL     1      34.675  58.119  57.408  0.00  0.00    +0.000 A 
ATOM      7  O   UNL     1      32.973  59.761  56.547  0.00  0.00    +0.000 OA
ATOM      8  C   UNL     1      32.653  60.147  55.214  0.00  0.00    +0.000 C 
ATOM      9  O   UNL     1      33.802  59.781  54.439  0.00  0.00    +0.000 OA
ENDROOT
BRANCH   1  11
ATOM     10  C   UNL     1      36.164  55.196  58.116  0.00  0.00    +0.000 C 
ATOM     11  C   UNL     1      36.426  56.492  58.107  0.00  0.00    +0.000 C 
BRANCH  10  15
ATOM     12  C   UNL     1      38.021  52.618  60.970  0.00  0.00    +0.000 A 
ATOM     13  C   UNL     1      37.429  53.797  61.343  0.00  0.00    +0.000 A 
ATOM     14  C   UNL     1      36.818  54.656  60.446  0.00  0.00    +0.000 A 
ATOM     15  C   UNL     1      36.805  54.309  59.112  0.00  0.00    +0.000 A 
ATOM     16  C   UNL     1      37.395  53.125  58.706  0.00  0.00    +0.000 A 
ATOM     17  C   UNL     1      37.997  52.290  59.632  0.00  0.00    +0.000 A 
ATOM     18  O   UNL     1      38.598  51.095  59.255  0.00  0.00    +0.000 OA
BRANCH  12  20
ATOM     19  C   UNL     1      39.886  52.108  62.448  0.00  0.00    +0.000 C 
ATOM     20  O   UNL     1      38.639  51.751  61.882  0.00  0.00    +0.000 OA
ENDBRANCH  12  20
ENDBRANCH  10  15
ENDBRANCH   1  11
BRANCH   3  21
ATOM     21  O   UNL     1      36.129  58.215  53.531  0.00  0.00    +0.000 OA
ATOM     22  C   UNL     1      36.980  59.296  53.179  0.00  0.00    +0.000 C 
ENDBRANCH   3  21
BRANCH   6  23
ATOM     23  O   UNL     1      34.163  58.112  58.694  0.00  0.00    +0.000 OA
ATOM     24  C   UNL     1      34.460  59.161  59.605  0.00  0.00    +0.000 C 
ENDBRANCH   6  23
TORSDOF 5
ENDMDL
MODEL 6
REMARK VINA RESULT:      -6.0     12.134     13.395
REMARK  Name = 
REMARK  5 active torsions:
REMARK  status: ('A' for Active; 'I' for Inactive)
REMARK    1  A    between atoms: O_2  and  C_3
REMARK    2  A    between atoms: C_6  and  C_7
REMARK    3  A    between atoms: C_8  and  C_9
REMARK    4  A    between atoms: C_11  and  O_12
REMARK    5  A    between atoms: C_16  and  O_17
REMARK                            x       y       z     vdW  Elec       q    Type
REMARK                         _______ _______ _______ _____ _____    ______ ____
ROOT
ATOM      1  C   UNL     1      32.471  44.355  61.906  0.00  0.00    +0.000 A 
ATOM      2  C   UNL     1      32.588  43.865  60.615  0.00  0.00    +0.000 A 
ATOM      3  C   UNL     1      33.785  43.461  60.097  0.00  0.00    +0.000 A 
ATOM      4  C   UNL     1      34.903  43.553  60.902  0.00  0.00    +0.000 A 
ATOM      5  C   UNL     1      34.840  44.033  62.190  0.00  0.00    +0.000 A 
ATOM      6  C   UNL     1      33.616  44.428  62.675  0.00  0.00    +0.000 A 
ATOM      7  O   UNL     1      36.097  44.021  62.779  0.00  0.00    +0.000 OA
ATOM      8  C   UNL     1      37.029  43.725  61.744  0.00  0.00    +0.000 C 
ATOM      9  O   UNL     1      36.232  43.227  60.662  0.00  0.00    +0.000 OA
ENDROOT
BRANCH   1  11
ATOM     10  C   UNL     1      30.728  45.990  62.132  0.00  0.00    +0.000 C 
ATOM     11  C   UNL     1      31.163  44.774  62.415  0.00  0.00    +0.000 C 
BRANCH  10  15
ATOM     12  C   UNL     1      26.927  47.333  63.542  0.00  0.00    +0.000 A 
ATOM     13  C   UNL     1      27.588  46.291  64.139  0.00  0.00    +0.000 A 
ATOM     14  C   UNL     1      28.821  45.830  63.709  0.00  0.00    +0.000 A 
ATOM     15  C   UNL     1      29.411  46.449  62.628  0.00  0.00    +0.000 A 
ATOM     16  C   UNL     1      28.766  47.503  62.006  0.00  0.00    +0.000 A 
ATOM     17  C   UNL     1      27.534  47.937  62.463  0.00  0.00    +0.000 A 
ATOM     18  O   UNL     1      26.861  48.992  61.859  0.00  0.00    +0.000 OA
BRANCH  12  20
ATOM     19  C   UNL     1      25.586  48.493  65.209  0.00  0.00    +0.000 C 
ATOM     20  O   UNL     1      25.679  47.796  63.981  0.00  0.00    +0.000 OA
ENDBRANCH  12  20
ENDBRANCH  10  15
ENDBRANCH   1  11
BRANCH   3  21
ATOM     21  O   UNL     1      33.949  42.966  58.814  0.00  0.00    +0.000 OA
ATOM     22  C   UNL     1      33.390  41.693  58.521  0.00  0.00    +0.000 C 
ENDBRANCH   3  21
BRANCH   6  23
ATOM     23  O   UNL     1      33.540  44.912  63.969  0.00  0.00    +0.000 OA
ATOM     24  C   UNL     1      33.727  44.050  65.083  0.00  0.00    +0.000 C 
ENDBRANCH   6  23
TORSDOF 5
ENDMDL
MODEL 7
REMARK VINA RESULT:      -6.0      3.556      8.371
REMARK  Name = 
REMARK  5 active torsions:
REMARK  status: ('A' for Active; 'I' for Inactive)
REMARK    1  A    between atoms: O_2  and  C_3
REMARK    2  A    between atoms: C_6  and  C_7
REMARK    3  A    between atoms: C_8  and  C_9
REMARK    4  A    between atoms: C_11  and  O_12
REMARK    5  A    between atoms: C_16  and  O_17
REMARK                            x       y       z     vdW  Elec       q    Type
REMARK                         _______ _______ _______ _____ _____    ______ ____
ROOT
ATOM      1  C   UNL     1      37.823  53.083  58.796  0.00  0.00    +0.000 A 
ATOM      2  C   UNL     1      37.783  54.458  58.629  0.00  0.00    +0.000 A 
ATOM      3  C   UNL     1      36.626  55.172  58.755  0.00  0.00    +0.000 A 
ATOM      4  C   UNL     1      35.469  54.482  59.057  0.00  0.00    +0.000 A 
ATOM      5  C   UNL     1      35.456  53.116  59.232  0.00  0.00    +0.000 A 
ATOM      6  C   UNL     1      36.642  52.435  59.098  0.00  0.00    +0.000 A 
ATOM      7  O   UNL     1      34.174  52.673  59.527  0.00  0.00    +0.000 OA
ATOM      8  C   UNL     1      33.302  53.778  59.315  0.00  0.00    +0.000 C 
ATOM      9  O   UNL     1      34.165  54.921  59.244  0.00  0.00    +0.000 OA
ENDROOT
BRANCH   1  11
ATOM     10  C   UNL     1      40.021  52.516  59.578  0.00  0.00    +0.000 C 
ATOM     11  C   UNL     1      39.091  52.364  58.651  0.00  0.00    +0.000 C 
BRANCH  10  15
ATOM     12  C   UNL     1      43.748  50.452  59.281  0.00  0.00    +0.000 A 
ATOM     13  C   UNL     1      43.328  51.323  58.309  0.00  0.00    +0.000 A 
ATOM     14  C   UNL     1      42.127  52.009  58.372  0.00  0.00    +0.000 A 
ATOM     15  C   UNL     1      41.314  51.806  59.467  0.00  0.00    +0.000 A 
ATOM     16  C   UNL     1      41.712  50.932  60.463  0.00  0.00    +0.000 A 
ATOM     17  C   UNL     1      42.920  50.264  60.367  0.00  0.00    +0.000 A 
ATOM     18  O   UNL     1      43.347  49.380  61.350  0.00  0.00    +0.000 OA
BRANCH  12  20
ATOM     19  C   UNL     1      45.087  48.650  58.343  0.00  0.00    +0.000 C 
ATOM     20  O   UNL     1      44.965  49.760  59.212  0.00  0.00    +0.000 OA
ENDBRANCH  12  20
ENDBRANCH  10  15
ENDBRANCH   1  11
BRANCH   3  21
ATOM     21  O   UNL     1      36.539  56.544  58.598  0.00  0.00    +0.000 OA
ATOM     22  C   UNL     1      36.250  57.043  57.299  0.00  0.00    +0.000 C 
ENDBRANCH   3  21
BRANCH   6  23
ATOM     23  O   UNL     1      36.640  51.062  59.272  0.00  0.00    +0.000 OA
ATOM     24  C   UNL     1      36.647  50.490  60.573  0.00  0.00    +0.000 C 
ENDBRANCH   6  23
TORSDOF 5
ENDMDL
MODEL 8
REMARK VINA RESULT:      -5.9      1.987      3.416
REMARK  Name = 
REMARK  5 active torsions:
REMARK  status: ('A' for Active; 'I' for Inactive)
REMARK    1  A    between atoms: O_2  and  C_3
REMARK    2  A    between atoms: C_6  and  C_7
REMARK    3  A    between atoms: C_8  and  C_9
REMARK    4  A    between atoms: C_11  and  O_12
REMARK    5  A    between atoms: C_16  and  O_17
REMARK                            x       y       z     vdW  Elec       q    Type
REMARK                         _______ _______ _______ _____ _____    ______ ____
ROOT
ATOM      1  C   UNL     1      36.967  53.905  58.607  0.00  0.00    +0.000 A 
ATOM      2  C   UNL     1      35.700  53.344  58.592  0.00  0.00    +0.000 A 
ATOM      3  C   UNL     1      35.436  52.131  59.161  0.00  0.00    +0.000 A 
ATOM      4  C   UNL     1      36.480  51.458  59.765  0.00  0.00    +0.000 A 
ATOM      5  C   UNL     1      37.756  51.973  59.807  0.00  0.00    +0.000 A 
ATOM      6  C   UNL     1      37.979  53.197  59.223  0.00  0.00    +0.000 A 
ATOM      7  O   UNL     1      38.613  51.104  60.468  0.00  0.00    +0.000 OA
ATOM      8  C   UNL     1      37.893  49.891  60.661  0.00  0.00    +0.000 C 
ATOM      9  O   UNL     1      36.523  50.231  60.415  0.00  0.00    +0.000 OA
ENDROOT
BRANCH   1  11
ATOM     10  C   UNL     1      36.176  55.843  57.431  0.00  0.00    +0.000 C 
ATOM     11  C   UNL     1      37.197  55.210  57.983  0.00  0.00    +0.000 C 
BRANCH  10  15
ATOM     12  C   UNL     1      36.734  59.643  55.562  0.00  0.00    +0.000 A 
ATOM     13  C   UNL     1      36.571  59.525  56.918  0.00  0.00    +0.000 A 
ATOM     14  C   UNL     1      36.388  58.310  57.558  0.00  0.00    +0.000 A 
ATOM     15  C   UNL     1      36.369  57.164  56.792  0.00  0.00    +0.000 A 
ATOM     16  C   UNL     1      36.531  57.253  55.421  0.00  0.00    +0.000 A 
ATOM     17  C   UNL     1      36.712  58.484  54.816  0.00  0.00    +0.000 A 
ATOM     18  O   UNL     1      36.877  58.606  53.442  0.00  0.00    +0.000 OA
BRANCH  12  20
ATOM     19  C   UNL     1      35.972  61.909  55.110  0.00  0.00    +0.000 C 
ATOM     20  O   UNL     1      36.919  60.874  54.920  0.00  0.00    +0.000 OA
ENDBRANCH  12  20
ENDBRANCH  10  15
ENDBRANCH   1  11
BRANCH   3  21
ATOM     21  O   UNL     1      34.188  51.532  59.170  0.00  0.00    +0.000 OA
ATOM     22  C   UNL     1      33.096  52.272  58.644  0.00  0.00    +0.000 C 
ENDBRANCH   3  21
BRANCH   6  23
ATOM     23  O   UNL     1      39.258  53.724  59.259  0.00  0.00    +0.000 OA
ATOM     24  C   UNL     1      39.773  54.313  60.445  0.00  0.00    +0.000 C 
ENDBRANCH   6  23
TORSDOF 5
ENDMDL
MODEL 9
REMARK VINA RESULT:      -5.9      2.535      3.267
REMARK  Name = 
REMARK  5 active torsions:
REMARK  status: ('A' for Active; 'I' for Inactive)
REMARK    1  A    between atoms: O_2  and  C_3
REMARK    2  A    between atoms: C_6  and  C_7
REMARK    3  A    between atoms: C_8  and  C_9
REMARK    4  A    between atoms: C_11  and  O_12
REMARK    5  A    between atoms: C_16  and  O_17
REMARK                            x       y       z     vdW  Elec       q    Type
REMARK                         _______ _______ _______ _____ _____    ______ ____
ROOT
ATOM      1  C   UNL     1      37.245  53.662  58.921  0.00  0.00    +0.000 A 
ATOM      2  C   UNL     1      38.543  53.651  58.437  0.00  0.00    +0.000 A 
ATOM      3  C   UNL     1      39.349  52.554  58.541  0.00  0.00    +0.000 A 
ATOM      4  C   UNL     1      38.834  51.429  59.155  0.00  0.00    +0.000 A 
ATOM      5  C   UNL     1      37.551  51.389  59.653  0.00  0.00    +0.000 A 
ATOM      6  C   UNL     1      36.772  52.515  59.526  0.00  0.00    +0.000 A 
ATOM      7  O   UNL     1      37.283  50.149  60.216  0.00  0.00    +0.000 OA
ATOM      8  C   UNL     1      38.522  49.449  60.269  0.00  0.00    +0.000 C 
ATOM      9  O   UNL     1      39.398  50.185  59.406  0.00  0.00    +0.000 OA
ENDROOT
BRANCH   1  11
ATOM     10  C   UNL     1      36.641  55.676  57.762  0.00  0.00    +0.000 C 
ATOM     11  C   UNL     1      36.421  54.865  58.782  0.00  0.00    +0.000 C 
BRANCH  10  15
ATOM     12  C   UNL     1      34.289  59.208  57.286  0.00  0.00    +0.000 A 
ATOM     13  C   UNL     1      35.039  58.700  56.258  0.00  0.00    +0.000 A 
ATOM     14  C   UNL     1      35.813  57.558  56.376  0.00  0.00    +0.000 A 
ATOM     15  C   UNL     1      35.829  56.900  57.588  0.00  0.00    +0.000 A 
ATOM     16  C   UNL     1      35.081  57.391  58.643  0.00  0.00    +0.000 A 
ATOM     17  C   UNL     1      34.319  58.536  58.489  0.00  0.00    +0.000 A 
ATOM     18  O   UNL     1      33.558  59.053  59.530  0.00  0.00    +0.000 OA
BRANCH  12  20
ATOM     19  C   UNL     1      32.601  60.481  56.082  0.00  0.00    +0.000 C 
ATOM     20  O   UNL     1      33.508  60.365  57.161  0.00  0.00    +0.000 OA
ENDBRANCH  12  20
ENDBRANCH  10  15
ENDBRANCH   1  11
BRANCH   3  21
ATOM     21  O   UNL     1      40.650  52.498  58.072  0.00  0.00    +0.000 OA
ATOM     22  C   UNL     1      41.680  52.977  58.925  0.00  0.00    +0.000 C 
ENDBRANCH   3  21
BRANCH   6  23
ATOM     23  O   UNL     1      35.481  52.486  60.023  0.00  0.00    +0.000 OA
ATOM     24  C   UNL     1      34.435  51.846  59.304  0.00  0.00    +0.000 C 
ENDBRANCH   6  23
TORSDOF 5
ENDMDL
MODEL 10
REMARK VINA RESULT:      -5.7      4.533      8.591
REMARK  Name = 
REMARK  5 active torsions:
REMARK  status: ('A' for Active; 'I' for Inactive)
REMARK    1  A    between atoms: O_2  and  C_3
REMARK    2  A    between atoms: C_6  and  C_7
REMARK    3  A    between atoms: C_8  and  C_9
REMARK    4  A    between atoms: C_11  and  O_12
REMARK    5  A    between atoms: C_16  and  O_17
REMARK                            x       y       z     vdW  Elec       q    Type
REMARK                         _______ _______ _______ _____ _____    ______ ____
ROOT
ATOM      1  C   UNL     1      37.553  52.073  59.236  0.00  0.00    +0.000 A 
ATOM      2  C   UNL     1      36.682  51.032  59.513  0.00  0.00    +0.000 A 
ATOM      3  C   UNL     1      35.348  51.237  59.723  0.00  0.00    +0.000 A 
ATOM      4  C   UNL     1      34.873  52.532  59.653  0.00  0.00    +0.000 A 
ATOM      5  C   UNL     1      35.698  53.600  59.380  0.00  0.00    +0.000 A 
ATOM      6  C   UNL     1      37.034  53.350  59.174  0.00  0.00    +0.000 A 
ATOM      7  O   UNL     1      34.975  54.785  59.367  0.00  0.00    +0.000 OA
ATOM      8  C   UNL     1      33.678  54.477  59.866  0.00  0.00    +0.000 C 
ATOM      9  O   UNL     1      33.594  53.047  59.817  0.00  0.00    +0.000 OA
ENDROOT
BRANCH   1  11
ATOM     10  C   UNL     1      39.762  51.634  60.066  0.00  0.00    +0.000 C 
ATOM     11  C   UNL     1      38.975  51.799  59.017  0.00  0.00    +0.000 C 
BRANCH  10  15
ATOM     12  C   UNL     1      43.925  50.816  59.568  0.00  0.00    +0.000 A 
ATOM     13  C   UNL     1      43.189  51.428  58.586  0.00  0.00    +0.000 A 
ATOM     14  C   UNL     1      41.839  51.709  58.713  0.00  0.00    +0.000 A 
ATOM     15  C   UNL     1      41.204  51.355  59.885  0.00  0.00    +0.000 A 
ATOM     16  C   UNL     1      41.922  50.735  60.893  0.00  0.00    +0.000 A 
ATOM     17  C   UNL     1      43.270  50.470  60.731  0.00  0.00    +0.000 A 
ATOM     18  O   UNL     1      44.017  49.850  61.725  0.00  0.00    +0.000 OA
BRANCH  12  20
ATOM     19  C   UNL     1      45.703  49.453  58.620  0.00  0.00    +0.000 C 
ATOM     20  O   UNL     1      45.291  50.533  59.435  0.00  0.00    +0.000 OA
ENDBRANCH  12  20
ENDBRANCH  10  15
ENDBRANCH   1  11
BRANCH   3  21
ATOM     21  O   UNL     1      34.441  50.229  60.003  0.00  0.00    +0.000 OA
ATOM     22  C   UNL     1      34.563  49.559  61.250  0.00  0.00    +0.000 C 
ENDBRANCH   3  21
BRANCH   6  23
ATOM     23  O   UNL     1      37.872  54.417  58.900  0.00  0.00    +0.000 OA
ATOM     24  C   UNL     1      38.362  55.248  59.943  0.00  0.00    +0.000 C 
ENDBRANCH   6  23
TORSDOF 5
ENDMDL
