MODEL 1
REMARK VINA RESULT:      -6.1      0.000      0.000
REMARK  Name = 
REMARK  6 active torsions:
REMARK  status: ('A' for Active; 'I' for Inactive)
REMARK    1  A    between atoms: O_2  and  C_3
REMARK    2  A    between atoms: C_5  and  C_6
REMARK    3  A    between atoms: C_7  and  C_8
REMARK    4  A    between atoms: C_11  and  O_12
REMARK    5  A    between atoms: C_14  and  O_15
REMARK    6  A    between atoms: C_19  and  O_20
REMARK                            x       y       z     vdW  Elec       q    Type
REMARK                         _______ _______ _______ _____ _____    ______ ____
ROOT
ATOM      1  C   UNL     1      34.553  57.791  59.283  0.00  0.00    +0.000 C 
ATOM      2  C   UNL     1      34.972  56.849  59.939  0.00  0.00    +0.000 C 
ENDROOT
BRANCH   1   5
ATOM      3  C   UNL     1      33.713  59.228  56.057  0.00  0.00    +0.000 A 
ATOM      4  C   UNL     1      33.713  58.817  57.341  0.00  0.00    +0.000 A 
ATOM      5  C   UNL     1      34.757  58.039  57.903  0.00  0.00    +0.000 A 
ATOM      6  C   UNL     1      35.750  57.747  57.043  0.00  0.00    +0.000 A 
ATOM      7  C   UNL     1      35.783  58.149  55.729  0.00  0.00    +0.000 A 
ATOM      8  C   UNL     1      34.738  58.910  55.221  0.00  0.00    +0.000 A 
BRANCH   3  10
ATOM      9  C   UNL     1      32.921  61.361  55.197  0.00  0.00    +0.000 C 
ATOM     10  O   UNL     1      32.661  59.999  55.526  0.00  0.00    +0.000 OA
ENDBRANCH   3  10
BRANCH   7  11
ATOM     11  O   UNL     1      36.804  57.853  54.845  0.00  0.00    +0.000 OA
ATOM     12  C   UNL     1      37.001  58.531  53.630  0.00  0.00    +0.000 C 
ENDBRANCH   7  11
ENDBRANCH   1   5
BRANCH   2  13
ATOM     13  C   UNL     1      35.755  55.755  59.504  0.00  0.00    +0.000 A 
ATOM     14  C   UNL     1      37.148  55.803  59.768  0.00  0.00    +0.000 A 
ATOM     15  C   UNL     1      37.959  54.755  59.448  0.00  0.00    +0.000 A 
ATOM     16  C   UNL     1      37.513  53.597  58.860  0.00  0.00    +0.000 A 
ATOM     17  C   UNL     1      36.142  53.531  58.592  0.00  0.00    +0.000 A 
ATOM     18  C   UNL     1      35.342  54.601  58.923  0.00  0.00    +0.000 A 
BRANCH  16  19
ATOM     19  O   UNL     1      38.364  52.555  58.550  0.00  0.00    +0.000 OA
ATOM     20  C   UNL     1      39.666  52.751  58.035  0.00  0.00    +0.000 C 
ENDBRANCH  16  19
BRANCH  17  21
ATOM     21  O   UNL     1      35.728  52.357  58.009  0.00  0.00    +0.000 OA
ATOM     22  C   UNL     1      35.106  51.264  58.561  0.00  0.00    +0.000 C 
ENDBRANCH  17  21
ENDBRANCH   2  13
TORSDOF 6
ENDMDL
MODEL 2
REMARK VINA RESULT:      -6.1      1.029      2.221
REMARK  Name = 
REMARK  6 active torsions:
REMARK  status: ('A' for Active; 'I' for Inactive)
REMARK    1  A    between atoms: O_2  and  C_3
REMARK    2  A    between atoms: C_5  and  C_6
REMARK    3  A    between atoms: C_7  and  C_8
REMARK    4  A    between atoms: C_11  and  O_12
REMARK    5  A    between atoms: C_14  and  O_15
REMARK    6  A    between atoms: C_19  and  O_20
REMARK                            x       y       z     vdW  Elec       q    Type
REMARK                         _______ _______ _______ _____ _____    ______ ____
ROOT
ATOM      1  C   UNL     1      36.349  58.292  59.182  0.00  0.00    +0.000 C 
ATOM      2  C   UNL     1      36.570  57.305  59.868  0.00  0.00    +0.000 C 
ENDROOT
BRANCH   1   5
ATOM      3  C   UNL     1      33.864  59.103  56.663  0.00  0.00    +0.000 A 
ATOM      4  C   UNL     1      34.538  58.909  57.814  0.00  0.00    +0.000 A 
ATOM      5  C   UNL     1      35.830  58.327  57.865  0.00  0.00    +0.000 A 
ATOM      6  C   UNL     1      36.327  57.985  56.661  0.00  0.00    +0.000 A 
ATOM      7  C   UNL     1      35.668  58.168  55.468  0.00  0.00    +0.000 A 
ATOM      8  C   UNL     1      34.403  58.742  55.468  0.00  0.00    +0.000 A 
BRANCH   3  10
ATOM      9  C   UNL     1      32.078  60.247  57.853  0.00  0.00    +0.000 C 
ATOM     10  O   UNL     1      32.580  59.682  56.646  0.00  0.00    +0.000 OA
ENDBRANCH   3  10
BRANCH   7  11
ATOM     11  O   UNL     1      36.178  57.821  54.231  0.00  0.00    +0.000 OA
ATOM     12  C   UNL     1      36.479  58.754  53.225  0.00  0.00    +0.000 C 
ENDBRANCH   7  11
ENDBRANCH   1   5
BRANCH   2  13
ATOM     13  C   UNL     1      36.360  55.945  59.544  0.00  0.00    +0.000 A 
ATOM     14  C   UNL     1      35.021  55.478  59.524  0.00  0.00    +0.000 A 
ATOM     15  C   UNL     1      34.729  54.201  59.149  0.00  0.00    +0.000 A 
ATOM     16  C   UNL     1      35.676  53.282  58.767  0.00  0.00    +0.000 A 
ATOM     17  C   UNL     1      37.002  53.724  58.780  0.00  0.00    +0.000 A 
ATOM     18  C   UNL     1      37.274  55.018  59.163  0.00  0.00    +0.000 A 
BRANCH  16  19
ATOM     19  O   UNL     1      35.343  51.995  58.393  0.00  0.00    +0.000 OA
ATOM     20  C   UNL     1      34.784  51.053  59.285  0.00  0.00    +0.000 C 
ENDBRANCH  16  19
BRANCH  17  21
ATOM     21  O   UNL     1      37.924  52.782  58.388  0.00  0.00    +0.000 OA
ATOM     22  C   UNL     1      39.290  52.869  58.283  0.00  0.00    +0.000 C 
ENDBRANCH  17  21
ENDBRANCH   2  13
TORSDOF 6
ENDMDL
MODEL 3
REMARK VINA RESULT:      -6.1      1.151      6.933
REMARK  Name = 
REMARK  6 active torsions:
REMARK  status: ('A' for Active; 'I' for Inactive)
REMARK    1  A    between atoms: O_2  and  C_3
REMARK    2  A    between atoms: C_5  and  C_6
REMARK    3  A    between atoms: C_7  and  C_8
REMARK    4  A    between atoms: C_11  and  O_12
REMARK    5  A    between atoms: C_14  and  O_15
REMARK    6  A    between atoms: C_19  and  O_20
REMARK                            x       y       z     vdW  Elec       q    Type
REMARK                         _______ _______ _______ _____ _____    ______ ____
ROOT
ATOM      1  C   UNL     1      36.742  56.555  60.183  0.00  0.00    +0.000 C 
ATOM      2  C   UNL     1      36.461  57.655  59.732  0.00  0.00    +0.000 C 
ENDROOT
BRANCH   1   5
ATOM      3  C   UNL     1      37.809  53.399  58.739  0.00  0.00    +0.000 A 
ATOM      4  C   UNL     1      37.753  54.636  59.273  0.00  0.00    +0.000 A 
ATOM      5  C   UNL     1      36.533  55.294  59.572  0.00  0.00    +0.000 A 
ATOM      6  C   UNL     1      35.434  54.575  59.277  0.00  0.00    +0.000 A 
ATOM      7  C   UNL     1      35.453  53.312  58.733  0.00  0.00    +0.000 A 
ATOM      8  C   UNL     1      36.673  52.707  58.456  0.00  0.00    +0.000 A 
BRANCH   3  10
ATOM      9  C   UNL     1      39.391  51.608  59.194  0.00  0.00    +0.000 C 
ATOM     10  O   UNL     1      39.037  52.772  58.452  0.00  0.00    +0.000 OA
ENDBRANCH   3  10
BRANCH   7  11
ATOM     11  O   UNL     1      34.325  52.571  58.433  0.00  0.00    +0.000 OA
ATOM     12  C   UNL     1      33.019  52.984  58.744  0.00  0.00    +0.000 C 
ENDBRANCH   7  11
ENDBRANCH   1   5
BRANCH   2  13
ATOM     13  C   UNL     1      35.870  57.970  58.487  0.00  0.00    +0.000 A 
ATOM     14  C   UNL     1      34.459  58.108  58.451  0.00  0.00    +0.000 A 
ATOM     15  C   UNL     1      33.820  58.483  57.307  0.00  0.00    +0.000 A 
ATOM     16  C   UNL     1      34.466  58.752  56.125  0.00  0.00    +0.000 A 
ATOM     17  C   UNL     1      35.858  58.621  56.141  0.00  0.00    +0.000 A 
ATOM     18  C   UNL     1      36.482  58.240  57.307  0.00  0.00    +0.000 A 
BRANCH  16  19
ATOM     19  O   UNL     1      33.785  59.130  54.984  0.00  0.00    +0.000 OA
ATOM     20  C   UNL     1      32.926  60.251  54.935  0.00  0.00    +0.000 C 
ENDBRANCH  16  19
BRANCH  17  21
ATOM     21  O   UNL     1      36.474  58.902  54.944  0.00  0.00    +0.000 OA
ATOM     22  C   UNL     1      37.634  58.402  54.405  0.00  0.00    +0.000 C 
ENDBRANCH  17  21
ENDBRANCH   2  13
TORSDOF 6
ENDMDL
MODEL 4
REMARK VINA RESULT:      -6.1      1.597      2.298
REMARK  Name = 
REMARK  6 active torsions:
REMARK  status: ('A' for Active; 'I' for Inactive)
REMARK    1  A    between atoms: O_2  and  C_3
REMARK    2  A    between atoms: C_5  and  C_6
REMARK    3  A    between atoms: C_7  and  C_8
REMARK    4  A    between atoms: C_11  and  O_12
REMARK    5  A    between atoms: C_14  and  O_15
REMARK    6  A    between atoms: C_19  and  O_20
REMARK                            x       y       z     vdW  Elec       q    Type
REMARK                         _______ _______ _______ _____ _____    ______ ____
ROOT
ATOM      1  C   UNL     1      34.548  57.953  58.778  0.00  0.00    +0.000 C 
ATOM      2  C   UNL     1      34.668  56.940  59.450  0.00  0.00    +0.000 C 
ENDROOT
BRANCH   1   5
ATOM      3  C   UNL     1      37.262  59.687  57.103  0.00  0.00    +0.000 A 
ATOM      4  C   UNL     1      36.364  59.227  57.997  0.00  0.00    +0.000 A 
ATOM      5  C   UNL     1      35.316  58.337  57.651  0.00  0.00    +0.000 A 
ATOM      6  C   UNL     1      35.296  57.988  56.351  0.00  0.00    +0.000 A 
ATOM      7  C   UNL     1      36.195  58.437  55.412  0.00  0.00    +0.000 A 
ATOM      8  C   UNL     1      37.206  59.309  55.797  0.00  0.00    +0.000 A 
BRANCH   3  10
ATOM      9  C   UNL     1      39.437  60.669  56.634  0.00  0.00    +0.000 C 
ATOM     10  O   UNL     1      38.292  60.572  57.476  0.00  0.00    +0.000 OA
ENDBRANCH   3  10
BRANCH   7  11
ATOM     11  O   UNL     1      36.178  58.078  54.078  0.00  0.00    +0.000 OA
ATOM     12  C   UNL     1      35.541  58.832  53.078  0.00  0.00    +0.000 C 
ENDBRANCH   7  11
ENDBRANCH   1   5
BRANCH   2  13
ATOM     13  C   UNL     1      35.587  55.878  59.282  0.00  0.00    +0.000 A 
ATOM     14  C   UNL     1      36.869  56.024  59.871  0.00  0.00    +0.000 A 
ATOM     15  C   UNL     1      37.784  55.016  59.818  0.00  0.00    +0.000 A 
ATOM     16  C   UNL     1      37.552  53.807  59.210  0.00  0.00    +0.000 A 
ATOM     17  C   UNL     1      36.294  53.644  58.624  0.00  0.00    +0.000 A 
ATOM     18  C   UNL     1      35.385  54.676  58.688  0.00  0.00    +0.000 A 
BRANCH  16  19
ATOM     19  O   UNL     1      38.505  52.806  59.176  0.00  0.00    +0.000 OA
ATOM     20  C   UNL     1      39.516  52.739  58.190  0.00  0.00    +0.000 C 
ENDBRANCH  16  19
BRANCH  17  21
ATOM     21  O   UNL     1      36.093  52.420  58.028  0.00  0.00    +0.000 OA
ATOM     22  C   UNL     1      35.416  51.315  58.480  0.00  0.00    +0.000 C 
ENDBRANCH  17  21
ENDBRANCH   2  13
TORSDOF 6
ENDMDL
MODEL 5
REMARK VINA RESULT:      -6.1      4.772      6.967
REMARK  Name = 
REMARK  6 active torsions:
REMARK  status: ('A' for Active; 'I' for Inactive)
REMARK    1  A    between atoms: O_2  and  C_3
REMARK    2  A    between atoms: C_5  and  C_6
REMARK    3  A    between atoms: C_7  and  C_8
REMARK    4  A    between atoms: C_11  and  O_12
REMARK    5  A    between atoms: C_14  and  O_15
REMARK    6  A    between atoms: C_19  and  O_20
REMARK                            x       y       z     vdW  Elec       q    Type
REMARK                         _______ _______ _______ _____ _____    ______ ____
ROOT
ATOM      1  C   UNL     1      36.627  54.658  58.630  0.00  0.00    +0.000 C 
ATOM      2  C   UNL     1      35.576  54.069  58.833  0.00  0.00    +0.000 C 
ENDROOT
BRANCH   1   5
ATOM      3  C   UNL     1      39.964  53.232  58.706  0.00  0.00    +0.000 A 
ATOM      4  C   UNL     1      38.699  53.573  58.388  0.00  0.00    +0.000 A 
ATOM      5  C   UNL     1      37.890  54.394  59.214  0.00  0.00    +0.000 A 
ATOM      6  C   UNL     1      38.496  54.805  60.344  0.00  0.00    +0.000 A 
ATOM      7  C   UNL     1      39.783  54.477  60.699  0.00  0.00    +0.000 A 
ATOM      8  C   UNL     1      40.538  53.669  59.858  0.00  0.00    +0.000 A 
BRANCH   3  10
ATOM      9  C   UNL     1      42.074  52.104  58.268  0.00  0.00    +0.000 C 
ATOM     10  O   UNL     1      40.743  52.412  57.865  0.00  0.00    +0.000 OA
ENDBRANCH   3  10
BRANCH   7  11
ATOM     11  O   UNL     1      40.408  54.900  61.857  0.00  0.00    +0.000 OA
ATOM     12  C   UNL     1      39.769  55.663  62.850  0.00  0.00    +0.000 C 
ENDBRANCH   7  11
ENDBRANCH   1   5
BRANCH   2  13
ATOM     13  C   UNL     1      35.338  52.966  59.686  0.00  0.00    +0.000 A 
ATOM     14  C   UNL     1      35.216  51.688  59.083  0.00  0.00    +0.000 A 
ATOM     15  C   UNL     1      35.061  50.567  59.841  0.00  0.00    +0.000 A 
ATOM     16  C   UNL     1      35.011  50.574  61.214  0.00  0.00    +0.000 A 
ATOM     17  C   UNL     1      35.129  51.825  61.827  0.00  0.00    +0.000 A 
ATOM     18  C   UNL     1      35.285  52.945  61.041  0.00  0.00    +0.000 A 
BRANCH  16  19
ATOM     19  O   UNL     1      34.852  49.417  61.951  0.00  0.00    +0.000 OA
ATOM     20  C   UNL     1      35.900  48.495  62.172  0.00  0.00    +0.000 C 
ENDBRANCH  16  19
BRANCH  17  21
ATOM     21  O   UNL     1      35.081  51.797  63.201  0.00  0.00    +0.000 OA
ATOM     22  C   UNL     1      36.097  51.755  64.123  0.00  0.00    +0.000 C 
ENDBRANCH  17  21
ENDBRANCH   2  13
TORSDOF 6
ENDMDL
MODEL 6
REMARK VINA RESULT:      -6.0      4.807      6.696
REMARK  Name = 
REMARK  6 active torsions:
REMARK  status: ('A' for Active; 'I' for Inactive)
REMARK    1  A    between atoms: O_2  and  C_3
REMARK    2  A    between atoms: C_5  and  C_6
REMARK    3  A    between atoms: C_7  and  C_8
REMARK    4  A    between atoms: C_11  and  O_12
REMARK    5  A    between atoms: C_14  and  O_15
REMARK    6  A    between atoms: C_19  and  O_20
REMARK                            x       y       z     vdW  Elec       q    Type
REMARK                         _______ _______ _______ _____ _____    ______ ____
ROOT
ATOM      1  C   UNL     1      36.887  54.669  58.478  0.00  0.00    +0.000 C 
ATOM      2  C   UNL     1      35.797  54.212  58.786  0.00  0.00    +0.000 C 
ENDROOT
BRANCH   1   5
ATOM      3  C   UNL     1      39.763  54.476  60.685  0.00  0.00    +0.000 A 
ATOM      4  C   UNL     1      38.604  54.804  60.080  0.00  0.00    +0.000 A 
ATOM      5  C   UNL     1      38.163  54.198  58.876  0.00  0.00    +0.000 A 
ATOM      6  C   UNL     1      39.003  53.266  58.390  0.00  0.00    +0.000 A 
ATOM      7  C   UNL     1      40.192  52.906  58.980  0.00  0.00    +0.000 A 
ATOM      8  C   UNL     1      40.583  53.528  60.159  0.00  0.00    +0.000 A 
BRANCH   3  10
ATOM      9  C   UNL     1      39.379  56.157  62.400  0.00  0.00    +0.000 C 
ATOM     10  O   UNL     1      40.176  55.097  61.880  0.00  0.00    +0.000 OA
ENDBRANCH   3  10
BRANCH   7  11
ATOM     11  O   UNL     1      41.054  51.946  58.483  0.00  0.00    +0.000 OA
ATOM     12  C   UNL     1      42.450  52.098  58.452  0.00  0.00    +0.000 C 
ENDBRANCH   7  11
ENDBRANCH   1   5
BRANCH   2  13
ATOM     13  C   UNL     1      35.512  53.093  59.603  0.00  0.00    +0.000 A 
ATOM     14  C   UNL     1      35.402  51.830  58.967  0.00  0.00    +0.000 A 
ATOM     15  C   UNL     1      35.204  50.694  59.693  0.00  0.00    +0.000 A 
ATOM     16  C   UNL     1      35.098  50.673  61.062  0.00  0.00    +0.000 A 
ATOM     17  C   UNL     1      35.204  51.908  61.707  0.00  0.00    +0.000 A 
ATOM     18  C   UNL     1      35.403  53.043  60.954  0.00  0.00    +0.000 A 
BRANCH  16  19
ATOM     19  O   UNL     1      34.897  49.501  61.766  0.00  0.00    +0.000 OA
ATOM     20  C   UNL     1      35.933  48.582  62.044  0.00  0.00    +0.000 C 
ENDBRANCH  16  19
BRANCH  17  21
ATOM     21  O   UNL     1      35.099  51.850  63.077  0.00  0.00    +0.000 OA
ATOM     22  C   UNL     1      36.076  51.779  64.039  0.00  0.00    +0.000 C 
ENDBRANCH  17  21
ENDBRANCH   2  13
TORSDOF 6
ENDMDL
MODEL 7
REMARK VINA RESULT:      -6.0      1.455      6.522
REMARK  Name = 
REMARK  6 active torsions:
REMARK  status: ('A' for Active; 'I' for Inactive)
REMARK    1  A    between atoms: O_2  and  C_3
REMARK    2  A    between atoms: C_5  and  C_6
REMARK    3  A    between atoms: C_7  and  C_8
REMARK    4  A    between atoms: C_11  and  O_12
REMARK    5  A    between atoms: C_14  and  O_15
REMARK    6  A    between atoms: C_19  and  O_20
REMARK                            x       y       z     vdW  Elec       q    Type
REMARK                         _______ _______ _______ _____ _____    ______ ____
ROOT
ATOM      1  C   UNL     1      35.145  57.018  60.213  0.00  0.00    +0.000 C 
ATOM      2  C   UNL     1      34.950  58.053  59.594  0.00  0.00    +0.000 C 
ENDROOT
BRANCH   1   5
ATOM      3  C   UNL     1      35.348  53.659  58.851  0.00  0.00    +0.000 A 
ATOM      4  C   UNL     1      34.934  54.834  59.366  0.00  0.00    +0.000 A 
ATOM      5  C   UNL     1      35.828  55.860  59.765  0.00  0.00    +0.000 A 
ATOM      6  C   UNL     1      37.127  55.559  59.584  0.00  0.00    +0.000 A 
ATOM      7  C   UNL     1      37.585  54.373  59.062  0.00  0.00    +0.000 A 
ATOM      8  C   UNL     1      36.672  53.396  58.685  0.00  0.00    +0.000 A 
BRANCH   3  10
ATOM      9  C   UNL     1      34.623  51.341  58.975  0.00  0.00    +0.000 C 
ATOM     10  O   UNL     1      34.436  52.658  58.464  0.00  0.00    +0.000 OA
ENDBRANCH   3  10
BRANCH   7  11
ATOM     11  O   UNL     1      38.919  54.063  58.873  0.00  0.00    +0.000 OA
ATOM     12  C   UNL     1      39.361  52.905  58.211  0.00  0.00    +0.000 C 
ENDBRANCH   7  11
ENDBRANCH   1   5
BRANCH   2  13
ATOM     13  C   UNL     1      35.358  58.381  58.280  0.00  0.00    +0.000 A 
ATOM     14  C   UNL     1      34.411  58.206  57.239  0.00  0.00    +0.000 A 
ATOM     15  C   UNL     1      34.701  58.569  55.959  0.00  0.00    +0.000 A 
ATOM     16  C   UNL     1      35.899  59.120  55.575  0.00  0.00    +0.000 A 
ATOM     17  C   UNL     1      36.846  59.300  56.587  0.00  0.00    +0.000 A 
ATOM     18  C   UNL     1      36.532  58.926  57.874  0.00  0.00    +0.000 A 
BRANCH  16  19
ATOM     19  O   UNL     1      36.159  59.476  54.265  0.00  0.00    +0.000 OA
ATOM     20  C   UNL     1      35.533  58.857  53.160  0.00  0.00    +0.000 C 
ENDBRANCH  16  19
BRANCH  17  21
ATOM     21  O   UNL     1      38.032  59.859  56.170  0.00  0.00    +0.000 OA
ATOM     22  C   UNL     1      38.580  61.086  56.450  0.00  0.00    +0.000 C 
ENDBRANCH  17  21
ENDBRANCH   2  13
TORSDOF 6
ENDMDL
MODEL 8
REMARK VINA RESULT:      -5.9      1.305      6.370
REMARK  Name = 
REMARK  6 active torsions:
REMARK  status: ('A' for Active; 'I' for Inactive)
REMARK    1  A    between atoms: O_2  and  C_3
REMARK    2  A    between atoms: C_5  and  C_6
REMARK    3  A    between atoms: C_7  and  C_8
REMARK    4  A    between atoms: C_11  and  O_12
REMARK    5  A    between atoms: C_14  and  O_15
REMARK    6  A    between atoms: C_19  and  O_20
REMARK                            x       y       z     vdW  Elec       q    Type
REMARK                         _______ _______ _______ _____ _____    ______ ____
ROOT
ATOM      1  C   UNL     1      36.643  56.781  60.741  0.00  0.00    +0.000 C 
ATOM      2  C   UNL     1      36.272  57.823  60.222  0.00  0.00    +0.000 C 
ENDROOT
BRANCH   1   5
ATOM      3  C   UNL     1      35.288  53.578  59.701  0.00  0.00    +0.000 A 
ATOM      4  C   UNL     1      35.484  54.797  60.243  0.00  0.00    +0.000 A 
ATOM      5  C   UNL     1      36.712  55.498  60.145  0.00  0.00    +0.000 A 
ATOM      6  C   UNL     1      37.668  54.841  59.462  0.00  0.00    +0.000 A 
ATOM      7  C   UNL     1      37.504  53.598  58.896  0.00  0.00    +0.000 A 
ATOM      8  C   UNL     1      36.282  52.949  59.019  0.00  0.00    +0.000 A 
BRANCH   3  10
ATOM      9  C   UNL     1      33.198  52.869  58.681  0.00  0.00    +0.000 C 
ATOM     10  O   UNL     1      34.056  52.905  59.817  0.00  0.00    +0.000 OA
ENDBRANCH   3  10
BRANCH   7  11
ATOM     11  O   UNL     1      38.483  52.923  58.192  0.00  0.00    +0.000 OA
ATOM     12  C   UNL     1      39.802  52.766  58.651  0.00  0.00    +0.000 C 
ENDBRANCH   7  11
ENDBRANCH   1   5
BRANCH   2  13
ATOM     13  C   UNL     1      35.826  58.034  58.896  0.00  0.00    +0.000 A 
ATOM     14  C   UNL     1      34.426  58.021  58.668  0.00  0.00    +0.000 A 
ATOM     15  C   UNL     1      33.914  58.290  57.434  0.00  0.00    +0.000 A 
ATOM     16  C   UNL     1      34.684  58.589  56.337  0.00  0.00    +0.000 A 
ATOM     17  C   UNL     1      36.067  58.607  56.543  0.00  0.00    +0.000 A 
ATOM     18  C   UNL     1      36.563  58.332  57.797  0.00  0.00    +0.000 A 
BRANCH  16  19
ATOM     19  O   UNL     1      34.130  58.857  55.100  0.00  0.00    +0.000 OA
ATOM     20  C   UNL     1      33.671  60.139  54.723  0.00  0.00    +0.000 C 
ENDBRANCH  16  19
BRANCH  17  21
ATOM     21  O   UNL     1      36.808  58.915  55.426  0.00  0.00    +0.000 OA
ATOM     22  C   UNL     1      37.429  58.091  54.519  0.00  0.00    +0.000 C 
ENDBRANCH  17  21
ENDBRANCH   2  13
TORSDOF 6
ENDMDL
MODEL 9
REMARK VINA RESULT:      -5.7      1.457      3.443
REMARK  Name = 
REMARK  6 active torsions:
REMARK  status: ('A' for Active; 'I' for Inactive)
REMARK    1  A    between atoms: O_2  and  C_3
REMARK    2  A    between atoms: C_5  and  C_6
REMARK    3  A    between atoms: C_7  and  C_8
REMARK    4  A    between atoms: C_11  and  O_12
REMARK    5  A    between atoms: C_14  and  O_15
REMARK    6  A    between atoms: C_19  and  O_20
REMARK                            x       y       z     vdW  Elec       q    Type
REMARK                         _______ _______ _______ _____ _____    ______ ____
ROOT
ATOM      1  C   UNL     1      36.718  58.992  58.743  0.00  0.00    +0.000 C 
ATOM      2  C   UNL     1      36.945  58.045  59.481  0.00  0.00    +0.000 C 
ENDROOT
BRANCH   1   5
ATOM      3  C   UNL     1      35.480  58.445  55.375  0.00  0.00    +0.000 A 
ATOM      4  C   UNL     1      36.236  58.534  56.487  0.00  0.00    +0.000 A 
ATOM      5  C   UNL     1      35.752  59.067  57.709  0.00  0.00    +0.000 A 
ATOM      6  C   UNL     1      34.471  59.475  57.662  0.00  0.00    +0.000 A 
ATOM      7  C   UNL     1      33.671  59.399  56.546  0.00  0.00    +0.000 A 
ATOM      8  C   UNL     1      34.188  58.870  55.371  0.00  0.00    +0.000 A 
BRANCH   3  10
ATOM      9  C   UNL     1      36.861  58.724  53.392  0.00  0.00    +0.000 C 
ATOM     10  O   UNL     1      35.989  57.913  54.174  0.00  0.00    +0.000 OA
ENDBRANCH   3  10
BRANCH   7  11
ATOM     11  O   UNL     1      32.353  59.815  56.497  0.00  0.00    +0.000 OA
ATOM     12  C   UNL     1      31.740  60.572  57.510  0.00  0.00    +0.000 C 
ENDBRANCH   7  11
ENDBRANCH   1   5
BRANCH   2  13
ATOM     13  C   UNL     1      36.307  56.784  59.514  0.00  0.00    +0.000 A 
ATOM     14  C   UNL     1      35.026  56.715  60.120  0.00  0.00    +0.000 A 
ATOM     15  C   UNL     1      34.314  55.554  60.125  0.00  0.00    +0.000 A 
ATOM     16  C   UNL     1      34.759  54.383  59.561  0.00  0.00    +0.000 A 
ATOM     17  C   UNL     1      36.019  54.431  58.958  0.00  0.00    +0.000 A 
ATOM     18  C   UNL     1      36.722  55.615  58.965  0.00  0.00    +0.000 A 
BRANCH  16  19
ATOM     19  O   UNL     1      34.009  53.223  59.585  0.00  0.00    +0.000 OA
ATOM     20  C   UNL     1      33.026  52.921  58.615  0.00  0.00    +0.000 C 
ENDBRANCH  16  19
BRANCH  17  21
ATOM     21  O   UNL     1      36.432  53.244  58.399  0.00  0.00    +0.000 OA
ATOM     22  C   UNL     1      37.463  52.408  58.753  0.00  0.00    +0.000 C 
ENDBRANCH  17  21
ENDBRANCH   2  13
TORSDOF 6
ENDMDL
MODEL 10
REMARK VINA RESULT:      -5.7     11.120     14.682
REMARK  Name = 
REMARK  6 active torsions:
REMARK  status: ('A' for Active; 'I' for Inactive)
REMARK    1  A    between atoms: O_2  and  C_3
REMARK    2  A    between atoms: C_5  and  C_6
REMARK    3  A    between atoms: C_7  and  C_8
REMARK    4  A    between atoms: C_11  and  O_12
REMARK    5  A    between atoms: C_14  and  O_15
REMARK    6  A    between atoms: C_19  and  O_20
REMARK                            x       y       z     vdW  Elec       q    Type
REMARK                         _______ _______ _______ _____ _____    ______ ____
ROOT
ATOM      1  C   UNL     1      30.466  41.931  61.170  0.00  0.00    +0.000 C 
ATOM      2  C   UNL     1      30.206  42.636  62.134  0.00  0.00    +0.000 C 
ENDROOT
BRANCH   1   5
ATOM      3  C   UNL     1      31.841  43.371  58.135  0.00  0.00    +0.000 A 
ATOM      4  C   UNL     1      31.615  42.974  59.403  0.00  0.00    +0.000 A 
ATOM      5  C   UNL     1      30.436  42.296  59.802  0.00  0.00    +0.000 A 
ATOM      6  C   UNL     1      29.560  42.081  58.802  0.00  0.00    +0.000 A 
ATOM      7  C   UNL     1      29.757  42.471  57.498  0.00  0.00    +0.000 A 
ATOM      8  C   UNL     1      30.929  43.134  57.155  0.00  0.00    +0.000 A 
BRANCH   3  10
ATOM      9  C   UNL     1      34.193  43.271  57.524  0.00  0.00    +0.000 C 
ATOM     10  O   UNL     1      33.023  44.045  57.769  0.00  0.00    +0.000 OA
ENDBRANCH   3  10
BRANCH   7  11
ATOM     11  O   UNL     1      28.861  42.248  56.470  0.00  0.00    +0.000 OA
ATOM     12  C   UNL     1      29.248  41.988  55.144  0.00  0.00    +0.000 C 
ENDBRANCH   7  11
ENDBRANCH   1   5
BRANCH   2  13
ATOM     13  C   UNL     1      29.819  43.996  62.148  0.00  0.00    +0.000 A 
ATOM     14  C   UNL     1      28.434  44.280  62.265  0.00  0.00    +0.000 A 
ATOM     15  C   UNL     1      27.987  45.564  62.362  0.00  0.00    +0.000 A 
ATOM     16  C   UNL     1      28.812  46.661  62.355  0.00  0.00    +0.000 A 
ATOM     17  C   UNL     1      30.181  46.401  62.240  0.00  0.00    +0.000 A 
ATOM     18  C   UNL     1      30.610  45.097  62.143  0.00  0.00    +0.000 A 
BRANCH  16  19
ATOM     19  O   UNL     1      28.324  47.950  62.454  0.00  0.00    +0.000 OA
ATOM     20  C   UNL     1      27.065  48.338  61.941  0.00  0.00    +0.000 C 
ENDBRANCH  16  19
BRANCH  17  21
ATOM     21  O   UNL     1      30.979  47.522  62.241  0.00  0.00    +0.000 OA
ATOM     22  C   UNL     1      32.305  47.666  61.915  0.00  0.00    +0.000 C 
ENDBRANCH  17  21
ENDBRANCH   2  13
TORSDOF 6
ENDMDL
