REMARK  Name = 
REMARK  7 active torsions:
REMARK  status: ('A' for Active; 'I' for Inactive)
REMARK    1  A    between atoms: O_2  and  C_3
REMARK    2  A    between atoms: C_5  and  C_6
REMARK    3  A    between atoms: C_7  and  C_8
REMARK    4  A    between atoms: C_7  and  C_10
REMARK    5  A    between atoms: C_12  and  O_13
REMARK    6  A    between atoms: C_22  and  O_23
REMARK    7  A    between atoms: C_25  and  O_26
REMARK                            x       y       z     vdW  Elec       q    Type
REMARK                         _______ _______ _______ _____ _____    ______ ____
ROOT
ATOM      1  C   UNL     1      -0.528  -2.129   1.161  0.00  0.00    +0.000 C 
ATOM      2  C   UNL     1       0.726  -2.259   0.888  0.00  0.00    +0.000 C 
ENDROOT
BRANCH   2   3
ATOM      3  C   UNL     1       1.462  -1.195   0.234  0.00  0.00    +0.000 A 
ATOM      4  C   UNL     1       1.045   0.037  -0.092  0.00  0.00    +0.000 A 
ATOM      5  C   UNL     1       1.854   0.952  -0.715  0.00  0.00    +0.000 A 
ATOM      6  C   UNL     1       3.172   0.618  -1.036  0.00  0.00    +0.000 A 
ATOM      7  C   UNL     1       3.634  -0.635  -0.719  0.00  0.00    +0.000 A 
ATOM      8  C   UNL     1       2.787  -1.509  -0.098  0.00  0.00    +0.000 A 
ATOM      9  O   UNL     1       4.962  -0.677  -1.155  0.00  0.00    +0.000 OA
ATOM     10  C   UNL     1       5.376   0.617  -1.568  0.00  0.00    +0.000 C 
ATOM     11  O   UNL     1       4.172   1.358  -1.659  0.00  0.00    +0.000 OA
BRANCH   5  12
ATOM     12  O   UNL     1       1.441   2.225  -1.055  0.00  0.00    +0.000 OA
ATOM     13  C   UNL     1       0.146   2.704  -0.792  0.00  0.00    +0.000 C 
ENDBRANCH   5  12
ENDBRANCH   2   3
BRANCH   1  16
ATOM     14  C   UNL     1      -2.325   0.411  -0.902  0.00  0.00    +0.000 A 
ATOM     15  C   UNL     1      -1.528  -0.633  -0.490  0.00  0.00    +0.000 A 
ATOM     16  C   UNL     1      -1.375  -1.047   0.810  0.00  0.00    +0.000 A 
ATOM     17  C   UNL     1      -2.116  -0.308   1.754  0.00  0.00    +0.000 A 
ATOM     18  C   UNL     1      -2.923   0.744   1.371  0.00  0.00    +0.000 A 
ATOM     19  C   UNL     1      -3.040   1.116   0.052  0.00  0.00    +0.000 A 
BRANCH  14  21
ATOM     20  C   UNL     1      -1.726   0.086  -3.244  0.00  0.00    +0.000 C 
ATOM     21  O   UNL     1      -2.429   0.771  -2.250  0.00  0.00    +0.000 OA
ENDBRANCH  14  21
BRANCH  18  22
ATOM     22  O   UNL     1      -3.644   1.453   2.346  0.00  0.00    +0.000 OA
ATOM     23  C   UNL     1      -3.551   1.104   3.711  0.00  0.00    +0.000 C 
ENDBRANCH  18  22
BRANCH  19  24
ATOM     24  O   UNL     1      -3.868   2.191  -0.314  0.00  0.00    +0.000 OA
ATOM     25  C   UNL     1      -5.225   1.874  -0.620  0.00  0.00    +0.000 C 
ENDBRANCH  19  24
ENDBRANCH   1  16
BRANCH   2  26
ATOM     26  C   UNL     1       1.456  -3.468   1.327  0.00  0.00    +0.000 C 
ATOM     27  N   UNL     1       2.042  -4.401   1.663  0.00  0.00    +0.000 NA
ENDBRANCH   2  26
TORSDOF 7
