REMARK  Name = 
REMARK  7 active torsions:
REMARK  status: ('A' for Active; 'I' for Inactive)
REMARK    1  A    between atoms: O_2  and  C_3
REMARK    2  A    between atoms: C_6  and  C_7
REMARK    3  A    between atoms: C_8  and  C_9
REMARK    4  A    between atoms: C_11  and  O_12
REMARK    5  A    between atoms: C_14  and  O_15
REMARK    6  A    between atoms: C_17  and  O_18
REMARK    7  A    between atoms: C_20  and  O_21
REMARK                            x       y       z     vdW  Elec       q    Type
REMARK                         _______ _______ _______ _____ _____    ______ ____
ROOT
ATOM      1  C   UNL     1      -1.168  -0.254   1.260  0.00  0.00    +0.000 A 
ATOM      2  C   UNL     1      -2.233  -1.172   1.137  0.00  0.00    +0.000 A 
ATOM      3  C   UNL     1      -3.099  -1.207   0.082  0.00  0.00    +0.000 A 
ATOM      4  C   UNL     1      -2.951  -0.301  -0.946  0.00  0.00    +0.000 A 
ATOM      5  C   UNL     1      -1.933   0.602  -0.858  0.00  0.00    +0.000 A 
ATOM      6  C   UNL     1      -1.046   0.642   0.221  0.00  0.00    +0.000 A 
ENDROOT
BRANCH   1   8
ATOM      7  C   UNL     1       0.753  -0.210   2.696  0.00  0.00    +0.000 C 
ATOM      8  C   UNL     1      -0.460  -0.290   2.478  0.00  0.00    +0.000 C 
BRANCH   7  12
ATOM      9  C   UNL     1       4.159   0.075   0.226  0.00  0.00    +0.000 A 
ATOM     10  C   UNL     1       4.160   0.368   1.552  0.00  0.00    +0.000 A 
ATOM     11  C   UNL     1       3.035   0.296   2.293  0.00  0.00    +0.000 A 
ATOM     12  C   UNL     1       1.794  -0.081   1.765  0.00  0.00    +0.000 A 
ATOM     13  C   UNL     1       1.821  -0.370   0.431  0.00  0.00    +0.000 A 
ATOM     14  C   UNL     1       2.957  -0.306  -0.356  0.00  0.00    +0.000 A 
ATOM     15  O   UNL     1       2.945  -0.609  -1.711  0.00  0.00    +0.000 OA
BRANCH   9  17
ATOM     16  C   UNL     1       6.548   0.504  -0.096  0.00  0.00    +0.000 C 
ATOM     17  O   UNL     1       5.290   0.135  -0.570  0.00  0.00    +0.000 OA
ENDBRANCH   9  17
ENDBRANCH   7  12
ENDBRANCH   1   8
BRANCH   3  18
ATOM     18  O   UNL     1      -4.144  -2.128  -0.010  0.00  0.00    +0.000 OA
ATOM     19  C   UNL     1      -4.377  -3.097   0.995  0.00  0.00    +0.000 C 
ENDBRANCH   3  18
BRANCH   4  20
ATOM     20  O   UNL     1      -3.818  -0.308  -2.044  0.00  0.00    +0.000 OA
ATOM     21  C   UNL     1      -3.504  -1.107  -3.195  0.00  0.00    +0.000 C 
ENDBRANCH   4  20
BRANCH   5  22
ATOM     22  O   UNL     1      -1.783   1.512  -1.888  0.00  0.00    +0.000 OA
ATOM     23  C   UNL     1      -2.445   2.779  -1.858  0.00  0.00    +0.000 C 
ENDBRANCH   5  22
BRANCH   6  24
ATOM     24  O   UNL     1      -0.092   1.630   0.155  0.00  0.00    +0.000 OA
ATOM     25  C   UNL     1      -0.407   2.896   0.712  0.00  0.00    +0.000 C 
ENDBRANCH   6  24
TORSDOF 7
