REMARK  Name = 
REMARK  4 active torsions:
REMARK  status: ('A' for Active; 'I' for Inactive)
REMARK    1  A    between atoms: O_2  and  C_3
REMARK    2  A    between atoms: C_6  and  C_7
REMARK    3  A    between atoms: C_8  and  C_9
REMARK    4  A    between atoms: C_11  and  O_12
REMARK                            x       y       z     vdW  Elec       q    Type
REMARK                         _______ _______ _______ _____ _____    ______ ____
ROOT
ATOM      1  C   UNL     1      -0.762  -0.263   0.355  0.00  0.00    +0.000 C 
ATOM      2  C   UNL     1       0.047   0.493  -0.321  0.00  0.00    +0.000 C 
ENDROOT
BRANCH   2   3
ATOM      3  C   UNL     1       1.494   0.400  -0.320  0.00  0.00    +0.000 A 
ATOM      4  C   UNL     1       2.133  -0.552   0.445  0.00  0.00    +0.000 A 
ATOM      5  C   UNL     1       3.505  -0.684   0.483  0.00  0.00    +0.000 A 
ATOM      6  C   UNL     1       4.251   0.190  -0.290  0.00  0.00    +0.000 A 
ATOM      7  C   UNL     1       3.663   1.159  -1.072  0.00  0.00    +0.000 A 
ATOM      8  C   UNL     1       2.284   1.243  -1.069  0.00  0.00    +0.000 A 
ATOM      9  O   UNL     1       4.647   1.899  -1.745  0.00  0.00    +0.000 OA
ATOM     10  C   UNL     1       5.904   1.471  -1.261  0.00  0.00    +0.000 C 
ATOM     11  O   UNL     1       5.611   0.319  -0.470  0.00  0.00    +0.000 OA
BRANCH   5  12
ATOM     12  O   UNL     1       4.118  -1.656   1.265  0.00  0.00    +0.000 OA
ATOM     13  C   UNL     1       3.300  -2.519   2.033  0.00  0.00    +0.000 C 
ENDBRANCH   5  12
ENDBRANCH   2   3
BRANCH   1  17
ATOM     14  C   UNL     1      -5.008  -0.058   0.408  0.00  0.00    +0.000 A 
ATOM     15  C   UNL     1      -4.272   0.812  -0.361  0.00  0.00    +0.000 A 
ATOM     16  C   UNL     1      -2.901   0.771  -0.399  0.00  0.00    +0.000 A 
ATOM     17  C   UNL     1      -2.212  -0.159   0.345  0.00  0.00    +0.000 A 
ATOM     18  C   UNL     1      -2.951  -1.027   1.112  0.00  0.00    +0.000 A 
ATOM     19  C   UNL     1      -4.328  -0.994   1.157  0.00  0.00    +0.000 A 
ATOM     20  O   UNL     1      -5.082  -1.864   1.927  0.00  0.00    +0.000 OA
BRANCH  14  22
ATOM     21  C   UNL     1      -7.048   0.995  -0.367  0.00  0.00    +0.000 C 
ATOM     22  O   UNL     1      -6.396   0.020   0.416  0.00  0.00    +0.000 OA
ENDBRANCH  14  22
ENDBRANCH   1  17
TORSDOF 4
