REMARK  Name = 
REMARK  5 active torsions:
REMARK  status: ('A' for Active; 'I' for Inactive)
REMARK    1  A    between atoms: O_2  and  C_3
REMARK    2  A    between atoms: C_5  and  C_6
REMARK    3  A    between atoms: C_7  and  C_8
REMARK    4  A    between atoms: C_11  and  O_12
REMARK    5  A    between atoms: C_18  and  O_19
REMARK                            x       y       z     vdW  Elec       q    Type
REMARK                         _______ _______ _______ _____ _____    ______ ____
ROOT
ATOM      1  C   UNL     1      -0.449  -2.471   0.076  0.00  0.00    +0.000 C 
ATOM      2  C   UNL     1       0.803  -2.479   0.009  0.00  0.00    +0.000 C 
ENDROOT
BRANCH   2   3
ATOM      3  C   UNL     1       1.615  -1.291   0.021  0.00  0.00    +0.000 A 
ATOM      4  C   UNL     1       1.268   0.011   0.100  0.00  0.00    +0.000 A 
ATOM      5  C   UNL     1       2.133   1.073   0.104  0.00  0.00    +0.000 A 
ATOM      6  C   UNL     1       3.501   0.811   0.019  0.00  0.00    +0.000 A 
ATOM      7  C   UNL     1       3.920  -0.489  -0.064  0.00  0.00    +0.000 A 
ATOM      8  O   UNL     1       5.297  -0.768  -0.150  0.00  0.00    +0.000 OA
ATOM      9  C   UNL     1       3.007  -1.505  -0.063  0.00  0.00    +0.000 A 
BRANCH   6  10
ATOM     10  O   UNL     1       4.451   1.817   0.015  0.00  0.00    +0.000 OA
ATOM     11  C   UNL     1       3.979   3.158   0.103  0.00  0.00    +0.000 C 
ENDBRANCH   6  10
ENDBRANCH   2   3
BRANCH   1  14
ATOM     12  C   UNL     1      -3.660  -0.741   0.327  0.00  0.00    +0.000 A 
ATOM     13  C   UNL     1      -2.700  -1.693   0.232  0.00  0.00    +0.000 A 
ATOM     14  C   UNL     1      -1.324  -1.348   0.175  0.00  0.00    +0.000 A 
ATOM     15  C   UNL     1      -1.105  -0.021   0.225  0.00  0.00    +0.000 A 
ATOM     16  C   UNL     1      -2.036   0.974   0.321  0.00  0.00    +0.000 A 
ATOM     17  C   UNL     1      -3.366   0.604   0.374  0.00  0.00    +0.000 A 
BRANCH  12  19
ATOM     18  C   UNL     1      -6.037  -0.176   0.480  0.00  0.00    +0.000 C 
ATOM     19  O   UNL     1      -4.987  -1.118   0.380  0.00  0.00    +0.000 OA
ENDBRANCH  12  19
BRANCH  16  20
ATOM     20  O   UNL     1      -1.688   2.309   0.365  0.00  0.00    +0.000 OA
ATOM     21  C   UNL     1      -2.624   3.343   0.463  0.00  0.00    +0.000 C 
ENDBRANCH  16  20
ENDBRANCH   1  14
TORSDOF 5
