MODEL 1
REMARK VINA RESULT:      -7.3      0.000      0.000
REMARK  Name = 
REMARK  5 active torsions:
REMARK  status: ('A' for Active; 'I' for Inactive)
REMARK    1  A    between atoms: C_2  and  C_3
REMARK    2  A    between atoms: C_5  and  O_6
REMARK    3  A    between atoms: O_6  and  C_7
REMARK    4  A    between atoms: C_12  and  C_13
REMARK    5  A    between atoms: C_14  and  C_15
REMARK                            x       y       z     vdW  Elec       q    Type
REMARK                         _______ _______ _______ _____ _____    ______ ____
ROOT
ATOM      1  C   UNL     1      35.623  56.788  59.141  0.00  0.00    +0.000 A 
ATOM      2  C   UNL     1      34.491  56.065  59.554  0.00  0.00    +0.000 A 
ATOM      3  C   UNL     1      34.584  54.758  59.978  0.00  0.00    +0.000 A 
ATOM      4  O   UNL     1      33.447  54.050  60.387  0.00  0.00    +0.000 OA
ATOM      5  C   UNL     1      35.785  54.113  60.014  0.00  0.00    +0.000 A 
ATOM      6  C   UNL     1      36.898  54.789  59.621  0.00  0.00    +0.000 A 
ATOM      7  C   UNL     1      36.799  56.097  59.197  0.00  0.00    +0.000 A 
ENDROOT
BRANCH   6   8
ATOM      8  C   UNL     1      38.214  54.164  59.633  0.00  0.00    +0.000 C 
ATOM      9  C   UNL     1      38.482  53.144  58.845  0.00  0.00    +0.000 C 
BRANCH   9  10
ATOM     10  C   UNL     1      39.826  52.526  58.875  0.00  0.00    +0.000 A 
ATOM     11  C   UNL     1      40.755  52.883  57.937  0.00  0.00    +0.000 A 
ATOM     12  C   UNL     1      41.995  52.286  57.997  0.00  0.00    +0.000 A 
ATOM     13  C   UNL     1      42.285  51.366  58.964  0.00  0.00    +0.000 A 
ATOM     14  O   UNL     1      43.546  50.793  58.982  0.00  0.00    +0.000 OA
ATOM     15  C   UNL     1      41.355  50.990  59.925  0.00  0.00    +0.000 A 
ATOM     16  C   UNL     1      40.114  51.597  59.853  0.00  0.00    +0.000 A 
ENDBRANCH   9  10
ENDBRANCH   6   8
BRANCH   1  17
ATOM     17  O   UNL     1      35.433  58.091  58.736  0.00  0.00    +0.000 OA
BRANCH  17  20
ATOM     18  C   UNL     1      35.325  58.188  55.263  0.00  0.00    +0.000 C 
ATOM     19  O   UNL     1      36.045  58.388  56.599  0.00  0.00    +0.000 OA
ATOM     20  C   UNL     1      34.687  58.107  57.367  0.00  0.00    +0.000 C 
ATOM     21  C   UNL     1      34.421  59.864  57.467  0.00  0.00    +0.000 C 
ATOM     22  O   UNL     1      33.128  59.684  58.187  0.00  0.00    +0.000 OA
ATOM     23  C   UNL     1      33.601  59.779  55.932  0.00  0.00    +0.000 C 
ATOM     24  O   UNL     1      33.402  61.276  55.921  0.00  0.00    +0.000 OA
ATOM     25  C   UNL     1      35.096  59.902  55.085  0.00  0.00    +0.000 C 
ATOM     26  O   UNL     1      34.423  59.726  53.756  0.00  0.00    +0.000 OA
BRANCH  18  28
ATOM     27  O   UNL     1      37.512  57.208  54.636  0.00  0.00    +0.000 OA
ATOM     28  C   UNL     1      36.678  58.184  54.324  0.00  0.00    +0.000 C 
ENDBRANCH  18  28
ENDBRANCH  17  20
ENDBRANCH   1  17
TORSDOF 5
ENDMDL
MODEL 2
REMARK VINA RESULT:      -7.3      2.919      9.778
REMARK  Name = 
REMARK  5 active torsions:
REMARK  status: ('A' for Active; 'I' for Inactive)
REMARK    1  A    between atoms: C_2  and  C_3
REMARK    2  A    between atoms: C_5  and  O_6
REMARK    3  A    between atoms: O_6  and  C_7
REMARK    4  A    between atoms: C_12  and  C_13
REMARK    5  A    between atoms: C_14  and  C_15
REMARK                            x       y       z     vdW  Elec       q    Type
REMARK                         _______ _______ _______ _____ _____    ______ ____
ROOT
ATOM      1  C   UNL     1      35.749  56.899  57.758  0.00  0.00    +0.000 A 
ATOM      2  C   UNL     1      36.620  56.743  56.667  0.00  0.00    +0.000 A 
ATOM      3  C   UNL     1      36.449  57.455  55.500  0.00  0.00    +0.000 A 
ATOM      4  O   UNL     1      37.325  57.291  54.420  0.00  0.00    +0.000 OA
ATOM      5  C   UNL     1      35.424  58.344  55.360  0.00  0.00    +0.000 A 
ATOM      6  C   UNL     1      34.566  58.515  56.402  0.00  0.00    +0.000 A 
ATOM      7  C   UNL     1      34.741  57.799  57.567  0.00  0.00    +0.000 A 
ENDROOT
BRANCH   6   8
ATOM      8  C   UNL     1      33.448  59.446  56.324  0.00  0.00    +0.000 C 
ATOM      9  C   UNL     1      32.587  59.547  57.314  0.00  0.00    +0.000 C 
BRANCH   9  10
ATOM     10  C   UNL     1      31.459  60.500  57.213  0.00  0.00    +0.000 A 
ATOM     11  C   UNL     1      31.712  61.844  57.168  0.00  0.00    +0.000 A 
ATOM     12  C   UNL     1      30.637  62.699  57.073  0.00  0.00    +0.000 A 
ATOM     13  C   UNL     1      29.359  62.219  57.026  0.00  0.00    +0.000 A 
ATOM     14  O   UNL     1      28.311  63.121  56.932  0.00  0.00    +0.000 OA
ATOM     15  C   UNL     1      29.082  60.859  57.071  0.00  0.00    +0.000 A 
ATOM     16  C   UNL     1      30.170  60.010  57.165  0.00  0.00    +0.000 A 
ENDBRANCH   9  10
ENDBRANCH   6   8
BRANCH   1  17
ATOM     17  O   UNL     1      36.000  56.146  58.884  0.00  0.00    +0.000 OA
BRANCH  17  20
ATOM     18  C   UNL     1      35.254  52.773  58.499  0.00  0.00    +0.000 C 
ATOM     19  O   UNL     1      34.992  54.154  59.104  0.00  0.00    +0.000 OA
ATOM     20  C   UNL     1      36.344  54.683  58.467  0.00  0.00    +0.000 C 
ATOM     21  C   UNL     1      37.157  54.371  60.019  0.00  0.00    +0.000 C 
ATOM     22  O   UNL     1      38.468  54.845  59.492  0.00  0.00    +0.000 OA
ATOM     23  C   UNL     1      37.496  52.755  59.462  0.00  0.00    +0.000 C 
ATOM     24  O   UNL     1      38.139  52.401  60.780  0.00  0.00    +0.000 OA
ATOM     25  C   UNL     1      35.950  52.209  59.989  0.00  0.00    +0.000 C 
ATOM     26  O   UNL     1      36.178  50.837  59.425  0.00  0.00    +0.000 OA
BRANCH  18  28
ATOM     27  O   UNL     1      32.781  52.905  58.444  0.00  0.00    +0.000 OA
ATOM     28  C   UNL     1      33.776  52.136  58.849  0.00  0.00    +0.000 C 
ENDBRANCH  18  28
ENDBRANCH  17  20
ENDBRANCH   1  17
TORSDOF 5
ENDMDL
MODEL 3
REMARK VINA RESULT:      -7.2      2.989      5.943
REMARK  Name = 
REMARK  5 active torsions:
REMARK  status: ('A' for Active; 'I' for Inactive)
REMARK    1  A    between atoms: C_2  and  C_3
REMARK    2  A    between atoms: C_5  and  O_6
REMARK    3  A    between atoms: O_6  and  C_7
REMARK    4  A    between atoms: C_12  and  C_13
REMARK    5  A    between atoms: C_14  and  C_15
REMARK                            x       y       z     vdW  Elec       q    Type
REMARK                         _______ _______ _______ _____ _____    ______ ____
ROOT
ATOM      1  C   UNL     1      33.796  59.618  55.390  0.00  0.00    +0.000 A 
ATOM      2  C   UNL     1      34.570  59.483  54.224  0.00  0.00    +0.000 A 
ATOM      3  C   UNL     1      35.664  58.648  54.177  0.00  0.00    +0.000 A 
ATOM      4  O   UNL     1      36.426  58.523  53.009  0.00  0.00    +0.000 OA
ATOM      5  C   UNL     1      36.040  57.917  55.265  0.00  0.00    +0.000 A 
ATOM      6  C   UNL     1      35.308  58.027  56.407  0.00  0.00    +0.000 A 
ATOM      7  C   UNL     1      34.214  58.864  56.448  0.00  0.00    +0.000 A 
ENDROOT
BRANCH   6   8
ATOM      8  C   UNL     1      35.650  57.276  57.608  0.00  0.00    +0.000 C 
ATOM      9  C   UNL     1      36.080  56.035  57.525  0.00  0.00    +0.000 C 
BRANCH   9  10
ATOM     10  C   UNL     1      36.422  55.292  58.758  0.00  0.00    +0.000 A 
ATOM     11  C   UNL     1      35.480  55.138  59.738  0.00  0.00    +0.000 A 
ATOM     12  C   UNL     1      35.835  54.440  60.870  0.00  0.00    +0.000 A 
ATOM     13  C   UNL     1      37.090  53.919  61.009  0.00  0.00    +0.000 A 
ATOM     14  O   UNL     1      37.400  53.225  62.168  0.00  0.00    +0.000 OA
ATOM     15  C   UNL     1      38.061  54.064  60.026  0.00  0.00    +0.000 A 
ATOM     16  C   UNL     1      37.691  54.767  58.893  0.00  0.00    +0.000 A 
ENDBRANCH   9  10
ENDBRANCH   6   8
BRANCH   1  17
ATOM     17  O   UNL     1      32.718  60.474  55.342  0.00  0.00    +0.000 OA
BRANCH  17  20
ATOM     18  C   UNL     1      29.917  59.748  57.267  0.00  0.00    +0.000 C 
ATOM     19  O   UNL     1      30.601  60.016  55.924  0.00  0.00    +0.000 OA
ATOM     20  C   UNL     1      31.936  60.403  56.689  0.00  0.00    +0.000 C 
ATOM     21  C   UNL     1      31.465  62.115  56.572  0.00  0.00    +0.000 C 
ATOM     22  O   UNL     1      32.692  62.560  57.292  0.00  0.00    +0.000 OA
ATOM     23  C   UNL     1      30.619  61.936  58.085  0.00  0.00    +0.000 C 
ATOM     24  O   UNL     1      30.128  63.361  58.015  0.00  0.00    +0.000 OA
ATOM     25  C   UNL     1      29.221  61.341  57.276  0.00  0.00    +0.000 C 
ATOM     26  O   UNL     1      28.511  61.080  58.571  0.00  0.00    +0.000 OA
BRANCH  18  28
ATOM     27  O   UNL     1      28.159  58.003  57.327  0.00  0.00    +0.000 OA
ATOM     28  C   UNL     1      28.554  59.062  56.644  0.00  0.00    +0.000 C 
ENDBRANCH  18  28
ENDBRANCH  17  20
ENDBRANCH   1  17
TORSDOF 5
ENDMDL
MODEL 4
REMARK VINA RESULT:      -7.1      1.290      1.675
REMARK  Name = 
REMARK  5 active torsions:
REMARK  status: ('A' for Active; 'I' for Inactive)
REMARK    1  A    between atoms: C_2  and  C_3
REMARK    2  A    between atoms: C_5  and  O_6
REMARK    3  A    between atoms: O_6  and  C_7
REMARK    4  A    between atoms: C_12  and  C_13
REMARK    5  A    between atoms: C_14  and  C_15
REMARK                            x       y       z     vdW  Elec       q    Type
REMARK                         _______ _______ _______ _____ _____    ______ ____
ROOT
ATOM      1  C   UNL     1      36.717  55.388  58.658  0.00  0.00    +0.000 A 
ATOM      2  C   UNL     1      35.482  54.746  58.464  0.00  0.00    +0.000 A 
ATOM      3  C   UNL     1      35.365  53.375  58.520  0.00  0.00    +0.000 A 
ATOM      4  O   UNL     1      34.128  52.748  58.326  0.00  0.00    +0.000 OA
ATOM      5  C   UNL     1      36.449  52.585  58.767  0.00  0.00    +0.000 A 
ATOM      6  C   UNL     1      37.657  53.180  58.959  0.00  0.00    +0.000 A 
ATOM      7  C   UNL     1      37.768  54.552  58.902  0.00  0.00    +0.000 A 
ENDROOT
BRANCH   6   8
ATOM      8  C   UNL     1      38.858  52.400  59.228  0.00  0.00    +0.000 C 
ATOM      9  C   UNL     1      40.009  52.728  58.682  0.00  0.00    +0.000 C 
BRANCH   9  10
ATOM     10  C   UNL     1      41.215  51.920  58.969  0.00  0.00    +0.000 A 
ATOM     11  C   UNL     1      42.382  52.188  58.306  0.00  0.00    +0.000 A 
ATOM     12  C   UNL     1      43.483  51.416  58.601  0.00  0.00    +0.000 A 
ATOM     13  C   UNL     1      43.411  50.414  59.527  0.00  0.00    +0.000 A 
ATOM     14  O   UNL     1      44.546  49.664  59.789  0.00  0.00    +0.000 OA
ATOM     15  C   UNL     1      42.236  50.126  60.211  0.00  0.00    +0.000 A 
ATOM     16  C   UNL     1      41.138  50.910  59.905  0.00  0.00    +0.000 A 
ENDBRANCH   9  10
ENDBRANCH   6   8
BRANCH   1  17
ATOM     17  O   UNL     1      36.736  56.764  58.587  0.00  0.00    +0.000 OA
BRANCH  17  20
ATOM     18  C   UNL     1      35.415  57.977  55.610  0.00  0.00    +0.000 C 
ATOM     19  O   UNL     1      36.587  57.702  56.555  0.00  0.00    +0.000 OA
ATOM     20  C   UNL     1      35.565  57.255  57.683  0.00  0.00    +0.000 C 
ATOM     21  C   UNL     1      35.653  58.898  58.363  0.00  0.00    +0.000 C 
ATOM     22  O   UNL     1      34.690  58.559  59.450  0.00  0.00    +0.000 OA
ATOM     23  C   UNL     1      34.337  59.351  57.314  0.00  0.00    +0.000 C 
ATOM     24  O   UNL     1      34.402  60.779  57.797  0.00  0.00    +0.000 OA
ATOM     25  C   UNL     1      35.429  59.666  56.020  0.00  0.00    +0.000 C 
ATOM     26  O   UNL     1      34.307  59.960  55.068  0.00  0.00    +0.000 OA
BRANCH  18  28
ATOM     27  O   UNL     1      37.487  57.587  54.309  0.00  0.00    +0.000 OA
ATOM     28  C   UNL     1      36.323  58.210  54.255  0.00  0.00    +0.000 C 
ENDBRANCH  18  28
ENDBRANCH  17  20
ENDBRANCH   1  17
TORSDOF 5
ENDMDL
MODEL 5
REMARK VINA RESULT:      -7.0      3.730      4.775
REMARK  Name = 
REMARK  5 active torsions:
REMARK  status: ('A' for Active; 'I' for Inactive)
REMARK    1  A    between atoms: C_2  and  C_3
REMARK    2  A    between atoms: C_5  and  O_6
REMARK    3  A    between atoms: O_6  and  C_7
REMARK    4  A    between atoms: C_12  and  C_13
REMARK    5  A    between atoms: C_14  and  C_15
REMARK                            x       y       z     vdW  Elec       q    Type
REMARK                         _______ _______ _______ _____ _____    ______ ____
ROOT
ATOM      1  C   UNL     1      36.068  56.780  57.991  0.00  0.00    +0.000 A 
ATOM      2  C   UNL     1      36.525  57.925  58.665  0.00  0.00    +0.000 A 
ATOM      3  C   UNL     1      36.851  57.893  60.002  0.00  0.00    +0.000 A 
ATOM      4  O   UNL     1      37.307  59.042  60.662  0.00  0.00    +0.000 OA
ATOM      5  C   UNL     1      36.743  56.743  60.727  0.00  0.00    +0.000 A 
ATOM      6  C   UNL     1      36.304  55.619  60.099  0.00  0.00    +0.000 A 
ATOM      7  C   UNL     1      35.978  55.656  58.761  0.00  0.00    +0.000 A 
ENDROOT
BRANCH   6   8
ATOM      8  C   UNL     1      36.163  54.354  60.809  0.00  0.00    +0.000 C 
ATOM      9  C   UNL     1      35.384  53.403  60.342  0.00  0.00    +0.000 C 
BRANCH   9  10
ATOM     10  C   UNL     1      35.257  52.127  61.080  0.00  0.00    +0.000 A 
ATOM     11  C   UNL     1      34.909  50.988  60.406  0.00  0.00    +0.000 A 
ATOM     12  C   UNL     1      34.802  49.819  61.127  0.00  0.00    +0.000 A 
ATOM     13  C   UNL     1      35.035  49.801  62.473  0.00  0.00    +0.000 A 
ATOM     14  O   UNL     1      34.914  48.600  63.155  0.00  0.00    +0.000 OA
ATOM     15  C   UNL     1      35.390  50.946  63.175  0.00  0.00    +0.000 A 
ATOM     16  C   UNL     1      35.494  52.112  62.439  0.00  0.00    +0.000 A 
ENDBRANCH   9  10
ENDBRANCH   6   8
BRANCH   1  17
ATOM     17  O   UNL     1      35.768  56.907  56.652  0.00  0.00    +0.000 OA
BRANCH  17  20
ATOM     18  C   UNL     1      34.803  60.072  55.589  0.00  0.00    +0.000 C 
ATOM     19  O   UNL     1      34.528  58.587  55.833  0.00  0.00    +0.000 OA
ATOM     20  C   UNL     1      36.058  58.368  56.190  0.00  0.00    +0.000 C 
ATOM     21  C   UNL     1      36.338  57.843  54.513  0.00  0.00    +0.000 C 
ATOM     22  O   UNL     1      37.790  57.621  54.766  0.00  0.00    +0.000 OA
ATOM     23  C   UNL     1      36.646  59.506  54.094  0.00  0.00    +0.000 C 
ATOM     24  O   UNL     1      36.830  59.140  52.642  0.00  0.00    +0.000 OA
ATOM     25  C   UNL     1      34.964  59.803  53.879  0.00  0.00    +0.000 C 
ATOM     26  O   UNL     1      35.195  61.262  53.618  0.00  0.00    +0.000 OA
BRANCH  18  28
ATOM     27  O   UNL     1      32.465  60.022  56.407  0.00  0.00    +0.000 OA
ATOM     28  C   UNL     1      33.227  60.531  55.455  0.00  0.00    +0.000 C 
ENDBRANCH  18  28
ENDBRANCH  17  20
ENDBRANCH   1  17
TORSDOF 5
ENDMDL
MODEL 6
REMARK VINA RESULT:      -7.0      2.381      8.962
REMARK  Name = 
REMARK  5 active torsions:
REMARK  status: ('A' for Active; 'I' for Inactive)
REMARK    1  A    between atoms: C_2  and  C_3
REMARK    2  A    between atoms: C_5  and  O_6
REMARK    3  A    between atoms: O_6  and  C_7
REMARK    4  A    between atoms: C_12  and  C_13
REMARK    5  A    between atoms: C_14  and  C_15
REMARK                            x       y       z     vdW  Elec       q    Type
REMARK                         _______ _______ _______ _____ _____    ______ ____
ROOT
ATOM      1  C   UNL     1      37.669  54.336  60.253  0.00  0.00    +0.000 A 
ATOM      2  C   UNL     1      36.598  53.648  60.848  0.00  0.00    +0.000 A 
ATOM      3  C   UNL     1      35.290  53.920  60.512  0.00  0.00    +0.000 A 
ATOM      4  O   UNL     1      34.232  53.226  61.113  0.00  0.00    +0.000 OA
ATOM      5  C   UNL     1      34.983  54.870  59.584  0.00  0.00    +0.000 A 
ATOM      6  C   UNL     1      36.001  55.551  58.991  0.00  0.00    +0.000 A 
ATOM      7  C   UNL     1      37.308  55.276  59.331  0.00  0.00    +0.000 A 
ENDROOT
BRANCH   6   8
ATOM      8  C   UNL     1      35.749  56.580  57.990  0.00  0.00    +0.000 C 
ATOM      9  C   UNL     1      36.315  56.518  56.804  0.00  0.00    +0.000 C 
BRANCH   9  10
ATOM     10  C   UNL     1      36.045  57.574  55.804  0.00  0.00    +0.000 A 
ATOM     11  C   UNL     1      36.865  57.702  54.717  0.00  0.00    +0.000 A 
ATOM     12  C   UNL     1      36.580  58.697  53.808  0.00  0.00    +0.000 A 
ATOM     13  C   UNL     1      35.512  59.529  53.988  0.00  0.00    +0.000 A 
ATOM     14  O   UNL     1      35.267  60.514  53.045  0.00  0.00    +0.000 OA
ATOM     15  C   UNL     1      34.667  59.415  55.085  0.00  0.00    +0.000 A 
ATOM     16  C   UNL     1      34.964  58.412  55.990  0.00  0.00    +0.000 A 
ENDBRANCH   9  10
ENDBRANCH   6   8
BRANCH   1  17
ATOM     17  O   UNL     1      38.943  53.995  60.650  0.00  0.00    +0.000 OA
BRANCH  17  20
ATOM     18  C   UNL     1      39.290  50.537  60.581  0.00  0.00    +0.000 C 
ATOM     19  O   UNL     1      39.085  51.860  61.323  0.00  0.00    +0.000 OA
ATOM     20  C   UNL     1      39.357  52.651  59.975  0.00  0.00    +0.000 C 
ATOM     21  C   UNL     1      41.052  52.854  60.478  0.00  0.00    +0.000 C 
ATOM     22  O   UNL     1      41.390  53.600  59.233  0.00  0.00    +0.000 OA
ATOM     23  C   UNL     1      41.416  51.341  59.694  0.00  0.00    +0.000 C 
ATOM     24  O   UNL     1      42.854  51.416  60.146  0.00  0.00    +0.000 OA
ATOM     25  C   UNL     1      40.948  50.459  61.097  0.00  0.00    +0.000 C 
ATOM     26  O   UNL     1      41.155  49.142  60.409  0.00  0.00    +0.000 OA
BRANCH  18  28
ATOM     27  O   UNL     1      37.465  49.614  61.980  0.00  0.00    +0.000 OA
ATOM     28  C   UNL     1      38.773  49.560  61.802  0.00  0.00    +0.000 C 
ENDBRANCH  18  28
ENDBRANCH  17  20
ENDBRANCH   1  17
TORSDOF 5
ENDMDL
MODEL 7
REMARK VINA RESULT:      -7.0      7.015      9.813
REMARK  Name = 
REMARK  5 active torsions:
REMARK  status: ('A' for Active; 'I' for Inactive)
REMARK    1  A    between atoms: C_2  and  C_3
REMARK    2  A    between atoms: C_5  and  O_6
REMARK    3  A    between atoms: O_6  and  C_7
REMARK    4  A    between atoms: C_12  and  C_13
REMARK    5  A    between atoms: C_14  and  C_15
REMARK                            x       y       z     vdW  Elec       q    Type
REMARK                         _______ _______ _______ _____ _____    ______ ____
ROOT
ATOM      1  C   UNL     1      35.108  49.878  60.913  0.00  0.00    +0.000 A 
ATOM      2  C   UNL     1      35.986  49.817  62.008  0.00  0.00    +0.000 A 
ATOM      3  C   UNL     1      35.714  49.033  63.108  0.00  0.00    +0.000 A 
ATOM      4  O   UNL     1      36.598  48.981  64.192  0.00  0.00    +0.000 OA
ATOM      5  C   UNL     1      34.577  48.283  63.175  0.00  0.00    +0.000 A 
ATOM      6  C   UNL     1      33.710  48.322  62.128  0.00  0.00    +0.000 A 
ATOM      7  C   UNL     1      33.986  49.108  61.030  0.00  0.00    +0.000 A 
ENDROOT
BRANCH   6   8
ATOM      8  C   UNL     1      32.476  47.547  62.130  0.00  0.00    +0.000 C 
ATOM      9  C   UNL     1      32.508  46.232  62.106  0.00  0.00    +0.000 C 
BRANCH   9  10
ATOM     10  C   UNL     1      31.242  45.466  62.109  0.00  0.00    +0.000 A 
ATOM     11  C   UNL     1      30.082  46.078  62.497  0.00  0.00    +0.000 A 
ATOM     12  C   UNL     1      28.924  45.332  62.486  0.00  0.00    +0.000 A 
ATOM     13  C   UNL     1      28.936  44.022  62.100  0.00  0.00    +0.000 A 
ATOM     14  O   UNL     1      27.745  43.313  62.107  0.00  0.00    +0.000 OA
ATOM     15  C   UNL     1      30.104  43.382  61.703  0.00  0.00    +0.000 A 
ATOM     16  C   UNL     1      31.259  44.143  61.718  0.00  0.00    +0.000 A 
ENDBRANCH   9  10
ENDBRANCH   6   8
BRANCH   1  17
ATOM     17  O   UNL     1      35.464  50.687  59.856  0.00  0.00    +0.000 OA
BRANCH  17  20
ATOM     18  C   UNL     1      35.662  54.095  60.508  0.00  0.00    +0.000 C 
ATOM     19  O   UNL     1      35.050  52.890  59.789  0.00  0.00    +0.000 OA
ATOM     20  C   UNL     1      36.184  51.961  60.395  0.00  0.00    +0.000 C 
ATOM     21  C   UNL     1      37.101  52.153  58.883  0.00  0.00    +0.000 C 
ATOM     22  O   UNL     1      38.213  51.295  59.383  0.00  0.00    +0.000 OA
ATOM     23  C   UNL     1      37.853  53.565  59.574  0.00  0.00    +0.000 C 
ATOM     24  O   UNL     1      38.611  53.825  58.295  0.00  0.00    +0.000 OA
ATOM     25  C   UNL     1      36.535  54.555  59.076  0.00  0.00    +0.000 C 
ATOM     26  O   UNL     1      37.112  55.763  59.753  0.00  0.00    +0.000 OA
BRANCH  18  28
ATOM     27  O   UNL     1      33.246  54.550  60.201  0.00  0.00    +0.000 OA
ATOM     28  C   UNL     1      34.428  55.141  60.195  0.00  0.00    +0.000 C 
ENDBRANCH  18  28
ENDBRANCH  17  20
ENDBRANCH   1  17
TORSDOF 5
ENDMDL
MODEL 8
REMARK VINA RESULT:      -6.8      2.763      8.907
REMARK  Name = 
REMARK  5 active torsions:
REMARK  status: ('A' for Active; 'I' for Inactive)
REMARK    1  A    between atoms: C_2  and  C_3
REMARK    2  A    between atoms: C_5  and  O_6
REMARK    3  A    between atoms: O_6  and  C_7
REMARK    4  A    between atoms: C_12  and  C_13
REMARK    5  A    between atoms: C_14  and  C_15
REMARK                            x       y       z     vdW  Elec       q    Type
REMARK                         _______ _______ _______ _____ _____    ______ ____
ROOT
ATOM      1  C   UNL     1      37.042  53.356  58.956  0.00  0.00    +0.000 A 
ATOM      2  C   UNL     1      35.895  53.105  59.728  0.00  0.00    +0.000 A 
ATOM      3  C   UNL     1      34.894  54.041  59.859  0.00  0.00    +0.000 A 
ATOM      4  O   UNL     1      33.756  53.777  60.631  0.00  0.00    +0.000 OA
ATOM      5  C   UNL     1      34.977  55.254  59.240  0.00  0.00    +0.000 A 
ATOM      6  C   UNL     1      36.077  55.523  58.485  0.00  0.00    +0.000 A 
ATOM      7  C   UNL     1      37.076  54.583  58.358  0.00  0.00    +0.000 A 
ENDROOT
BRANCH   6   8
ATOM      8  C   UNL     1      36.234  56.797  57.795  0.00  0.00    +0.000 C 
ATOM      9  C   UNL     1      36.126  56.870  56.486  0.00  0.00    +0.000 C 
BRANCH   9  10
ATOM     10  C   UNL     1      36.289  58.174  55.806  0.00  0.00    +0.000 A 
ATOM     11  C   UNL     1      36.829  59.230  56.489  0.00  0.00    +0.000 A 
ATOM     12  C   UNL     1      36.965  60.427  55.823  0.00  0.00    +0.000 A 
ATOM     13  C   UNL     1      36.573  60.555  54.521  0.00  0.00    +0.000 A 
ATOM     14  O   UNL     1      36.731  61.781  53.894  0.00  0.00    +0.000 OA
ATOM     15  C   UNL     1      36.023  59.496  53.810  0.00  0.00    +0.000 A 
ATOM     16  C   UNL     1      35.892  58.299  54.491  0.00  0.00    +0.000 A 
ENDBRANCH   9  10
ENDBRANCH   6   8
BRANCH   1  17
ATOM     17  O   UNL     1      37.990  52.359  58.882  0.00  0.00    +0.000 OA
BRANCH  17  20
ATOM     18  C   UNL     1      39.660  52.699  61.911  0.00  0.00    +0.000 C 
ATOM     19  O   UNL     1      39.458  53.043  60.433  0.00  0.00    +0.000 OA
ATOM     20  C   UNL     1      38.371  51.894  60.321  0.00  0.00    +0.000 C 
ATOM     21  C   UNL     1      39.634  50.807  59.697  0.00  0.00    +0.000 C 
ATOM     22  O   UNL     1      38.674  49.673  59.569  0.00  0.00    +0.000 OA
ATOM     23  C   UNL     1      39.985  50.349  61.341  0.00  0.00    +0.000 C 
ATOM     24  O   UNL     1      41.117  49.460  60.885  0.00  0.00    +0.000 OA
ATOM     25  C   UNL     1      41.033  51.702  61.533  0.00  0.00    +0.000 C 
ATOM     26  O   UNL     1      41.269  51.388  62.981  0.00  0.00    +0.000 OA
BRANCH  18  28
ATOM     27  O   UNL     1      40.196  55.106  61.670  0.00  0.00    +0.000 OA
ATOM     28  C   UNL     1      40.598  54.003  62.276  0.00  0.00    +0.000 C 
ENDBRANCH  18  28
ENDBRANCH  17  20
ENDBRANCH   1  17
TORSDOF 5
ENDMDL
MODEL 9
REMARK VINA RESULT:      -6.8      2.373      9.052
REMARK  Name = 
REMARK  5 active torsions:
REMARK  status: ('A' for Active; 'I' for Inactive)
REMARK    1  A    between atoms: C_2  and  C_3
REMARK    2  A    between atoms: C_5  and  O_6
REMARK    3  A    between atoms: O_6  and  C_7
REMARK    4  A    between atoms: C_12  and  C_13
REMARK    5  A    between atoms: C_14  and  C_15
REMARK                            x       y       z     vdW  Elec       q    Type
REMARK                         _______ _______ _______ _____ _____    ______ ____
ROOT
ATOM      1  C   UNL     1      37.475  51.946  59.529  0.00  0.00    +0.000 A 
ATOM      2  C   UNL     1      36.410  51.967  60.447  0.00  0.00    +0.000 A 
ATOM      3  C   UNL     1      35.507  53.006  60.481  0.00  0.00    +0.000 A 
ATOM      4  O   UNL     1      34.451  53.014  61.400  0.00  0.00    +0.000 OA
ATOM      5  C   UNL     1      35.611  54.059  59.621  0.00  0.00    +0.000 A 
ATOM      6  C   UNL     1      36.632  54.064  58.721  0.00  0.00    +0.000 A 
ATOM      7  C   UNL     1      37.533  53.022  58.692  0.00  0.00    +0.000 A 
ENDROOT
BRANCH   6   8
ATOM      8  C   UNL     1      36.806  55.156  57.771  0.00  0.00    +0.000 C 
ATOM      9  C   UNL     1      36.052  56.232  57.839  0.00  0.00    +0.000 C 
BRANCH   9  10
ATOM     10  C   UNL     1      36.247  57.328  56.863  0.00  0.00    +0.000 A 
ATOM     11  C   UNL     1      36.377  58.615  57.309  0.00  0.00    +0.000 A 
ATOM     12  C   UNL     1      36.557  59.607  56.372  0.00  0.00    +0.000 A 
ATOM     13  C   UNL     1      36.604  59.314  55.038  0.00  0.00    +0.000 A 
ATOM     14  O   UNL     1      36.786  60.347  54.134  0.00  0.00    +0.000 OA
ATOM     15  C   UNL     1      36.474  58.013  54.566  0.00  0.00    +0.000 A 
ATOM     16  C   UNL     1      36.294  57.027  55.518  0.00  0.00    +0.000 A 
ENDBRANCH   9  10
ENDBRANCH   6   8
BRANCH   1  17
ATOM     17  O   UNL     1      38.326  50.864  59.568  0.00  0.00    +0.000 OA
BRANCH  17  20
ATOM     18  C   UNL     1      41.626  51.910  59.883  0.00  0.00    +0.000 C 
ATOM     19  O   UNL     1      40.458  51.349  59.068  0.00  0.00    +0.000 OA
ATOM     20  C   UNL     1      39.597  51.231  60.394  0.00  0.00    +0.000 C 
ATOM     21  C   UNL     1      40.081  49.522  60.515  0.00  0.00    +0.000 C 
ATOM     22  O   UNL     1      39.302  49.332  61.771  0.00  0.00    +0.000 OA
ATOM     23  C   UNL     1      41.473  50.031  61.432  0.00  0.00    +0.000 C 
ATOM     24  O   UNL     1      41.977  48.611  61.515  0.00  0.00    +0.000 OA
ATOM     25  C   UNL     1      42.359  50.337  59.989  0.00  0.00    +0.000 C 
ATOM     26  O   UNL     1      43.532  50.877  60.754  0.00  0.00    +0.000 OA
BRANCH  18  28
ATOM     27  O   UNL     1      41.836  52.625  57.521  0.00  0.00    +0.000 OA
ATOM     28  C   UNL     1      42.554  52.351  58.595  0.00  0.00    +0.000 C 
ENDBRANCH  18  28
ENDBRANCH  17  20
ENDBRANCH   1  17
TORSDOF 5
ENDMDL
MODEL 10
REMARK VINA RESULT:      -6.7      1.647      2.545
REMARK  Name = 
REMARK  5 active torsions:
REMARK  status: ('A' for Active; 'I' for Inactive)
REMARK    1  A    between atoms: C_2  and  C_3
REMARK    2  A    between atoms: C_5  and  O_6
REMARK    3  A    between atoms: O_6  and  C_7
REMARK    4  A    between atoms: C_12  and  C_13
REMARK    5  A    between atoms: C_14  and  C_15
REMARK                            x       y       z     vdW  Elec       q    Type
REMARK                         _______ _______ _______ _____ _____    ______ ____
ROOT
ATOM      1  C   UNL     1      35.537  56.150  58.477  0.00  0.00    +0.000 A 
ATOM      2  C   UNL     1      34.601  55.524  59.317  0.00  0.00    +0.000 A 
ATOM      3  C   UNL     1      34.871  54.320  59.929  0.00  0.00    +0.000 A 
ATOM      4  O   UNL     1      33.929  53.708  60.766  0.00  0.00    +0.000 OA
ATOM      5  C   UNL     1      36.064  53.687  59.742  0.00  0.00    +0.000 A 
ATOM      6  C   UNL     1      36.990  54.270  58.933  0.00  0.00    +0.000 A 
ATOM      7  C   UNL     1      36.714  55.475  58.323  0.00  0.00    +0.000 A 
ENDROOT
BRANCH   6   8
ATOM      8  C   UNL     1      38.286  53.651  58.687  0.00  0.00    +0.000 C 
ATOM      9  C   UNL     1      38.965  53.100  59.670  0.00  0.00    +0.000 C 
BRANCH   9  10
ATOM     10  C   UNL     1      40.279  52.477  59.396  0.00  0.00    +0.000 A 
ATOM     11  C   UNL     1      40.960  52.808  58.257  0.00  0.00    +0.000 A 
ATOM     12  C   UNL     1      42.180  52.208  58.037  0.00  0.00    +0.000 A 
ATOM     13  C   UNL     1      42.692  51.310  58.930  0.00  0.00    +0.000 A 
ATOM     14  O   UNL     1      43.924  50.733  58.664  0.00  0.00    +0.000 OA
ATOM     15  C   UNL     1      42.016  50.961  60.092  0.00  0.00    +0.000 A 
ATOM     16  C   UNL     1      40.792  51.571  60.301  0.00  0.00    +0.000 A 
ENDBRANCH   9  10
ENDBRANCH   6   8
BRANCH   1  17
ATOM     17  O   UNL     1      35.179  57.353  57.911  0.00  0.00    +0.000 OA
BRANCH  17  20
ATOM     18  C   UNL     1      37.368  60.044  57.686  0.00  0.00    +0.000 C 
ATOM     19  O   UNL     1      36.016  59.429  58.056  0.00  0.00    +0.000 OA
ATOM     20  C   UNL     1      36.451  58.070  57.363  0.00  0.00    +0.000 C 
ATOM     21  C   UNL     1      35.595  58.588  55.891  0.00  0.00    +0.000 C 
ATOM     22  O   UNL     1      35.970  57.340  55.167  0.00  0.00    +0.000 OA
ATOM     23  C   UNL     1      37.067  59.358  55.364  0.00  0.00    +0.000 C 
ATOM     24  O   UNL     1      36.384  59.887  54.126  0.00  0.00    +0.000 OA
ATOM     25  C   UNL     1      36.690  60.777  56.263  0.00  0.00    +0.000 C 
ATOM     26  O   UNL     1      37.998  61.420  55.908  0.00  0.00    +0.000 OA
BRANCH  18  28
ATOM     27  O   UNL     1      36.953  61.167  59.855  0.00  0.00    +0.000 OA
ATOM     28  C   UNL     1      37.197  61.416  58.581  0.00  0.00    +0.000 C 
ENDBRANCH  18  28
ENDBRANCH  17  20
ENDBRANCH   1  17
TORSDOF 5
ENDMDL
