MODEL 1
REMARK VINA RESULT:      -6.6      0.000      0.000
REMARK  Name = 
REMARK  3 active torsions:
REMARK  status: ('A' for Active; 'I' for Inactive)
REMARK    1  A    between atoms: O_2  and  C_3
REMARK    2  A    between atoms: C_8  and  C_9
REMARK    3  A    between atoms: C_10  and  C_11
REMARK                            x       y       z     vdW  Elec       q    Type
REMARK                         _______ _______ _______ _____ _____    ______ ____
ROOT
ATOM      1  C   UNL     1      27.938  41.360  62.550  0.00  0.00    +0.000 A 
ATOM      2  C   UNL     1      26.757  41.452  61.856  0.00  0.00    +0.000 A 
ATOM      3  C   UNL     1      26.520  42.653  61.186  0.00  0.00    +0.000 A 
ATOM      4  O   UNL     1      25.347  42.796  60.473  0.00  0.00    +0.000 OA
ATOM      5  C   UNL     1      27.450  43.664  61.245  0.00  0.00    +0.000 A 
ATOM      6  C   UNL     1      28.610  43.608  61.911  0.00  0.00    +0.000 A 
ATOM      7  C   UNL     1      28.824  42.377  62.583  0.00  0.00    +0.000 A 
ENDROOT
BRANCH   1   9
ATOM      8  C   UNL     1      27.214  39.117  63.257  0.00  0.00    +0.000 C 
ATOM      9  O   UNL     1      28.159  40.153  63.214  0.00  0.00    +0.000 OA
ENDBRANCH   1   9
BRANCH   6  10
ATOM     10  C   UNL     1      29.688  44.515  62.099  0.00  0.00    +0.000 C 
ATOM     11  C   UNL     1      29.621  45.645  62.598  0.00  0.00    +0.000 C 
BRANCH  11  12
ATOM     12  C   UNL     1      28.474  46.306  63.095  0.00  0.00    +0.000 A 
ATOM     13  C   UNL     1      27.849  47.285  62.281  0.00  0.00    +0.000 A 
ATOM     14  C   UNL     1      26.735  47.965  62.700  0.00  0.00    +0.000 A 
ATOM     15  C   UNL     1      26.142  47.756  63.925  0.00  0.00    +0.000 A 
ATOM     16  O   UNL     1      25.015  48.461  64.316  0.00  0.00    +0.000 OA
ATOM     17  C   UNL     1      26.747  46.799  64.730  0.00  0.00    +0.000 A 
ATOM     18  C   UNL     1      27.866  46.129  64.285  0.00  0.00    +0.000 A 
ENDBRANCH  11  12
ENDBRANCH   6  10
TORSDOF 3
ENDMDL
MODEL 2
REMARK VINA RESULT:      -6.3     13.241     16.042
REMARK  Name = 
REMARK  3 active torsions:
REMARK  status: ('A' for Active; 'I' for Inactive)
REMARK    1  A    between atoms: O_2  and  C_3
REMARK    2  A    between atoms: C_8  and  C_9
REMARK    3  A    between atoms: C_10  and  C_11
REMARK                            x       y       z     vdW  Elec       q    Type
REMARK                         _______ _______ _______ _____ _____    ______ ____
ROOT
ATOM      1  C   UNL     1      35.483  58.113  55.591  0.00  0.00    +0.000 A 
ATOM      2  C   UNL     1      34.253  58.719  55.657  0.00  0.00    +0.000 A 
ATOM      3  C   UNL     1      33.739  58.948  56.934  0.00  0.00    +0.000 A 
ATOM      4  O   UNL     1      32.505  59.555  57.055  0.00  0.00    +0.000 OA
ATOM      5  C   UNL     1      34.463  58.571  58.041  0.00  0.00    +0.000 A 
ATOM      6  C   UNL     1      35.664  57.979  58.012  0.00  0.00    +0.000 A 
ATOM      7  C   UNL     1      36.161  57.758  56.703  0.00  0.00    +0.000 A 
ENDROOT
BRANCH   1   9
ATOM      8  C   UNL     1      35.733  58.752  53.228  0.00  0.00    +0.000 C 
ATOM      9  O   UNL     1      35.982  57.891  54.307  0.00  0.00    +0.000 OA
ENDBRANCH   1   9
BRANCH   6  10
ATOM     10  C   UNL     1      36.563  57.517  59.011  0.00  0.00    +0.000 C 
ATOM     11  C   UNL     1      36.523  56.424  59.589  0.00  0.00    +0.000 C 
BRANCH  11  12
ATOM     12  C   UNL     1      35.586  55.380  59.406  0.00  0.00    +0.000 A 
ATOM     13  C   UNL     1      35.920  54.316  58.529  0.00  0.00    +0.000 A 
ATOM     14  C   UNL     1      35.059  53.273  58.304  0.00  0.00    +0.000 A 
ATOM     15  C   UNL     1      33.823  53.175  58.901  0.00  0.00    +0.000 A 
ATOM     16  O   UNL     1      32.978  52.105  58.650  0.00  0.00    +0.000 OA
ATOM     17  C   UNL     1      33.486  54.212  59.762  0.00  0.00    +0.000 A 
ATOM     18  C   UNL     1      34.369  55.249  59.971  0.00  0.00    +0.000 A 
ENDBRANCH  11  12
ENDBRANCH   6  10
TORSDOF 3
ENDMDL
MODEL 3
REMARK VINA RESULT:      -6.0     13.067     15.958
REMARK  Name = 
REMARK  3 active torsions:
REMARK  status: ('A' for Active; 'I' for Inactive)
REMARK    1  A    between atoms: O_2  and  C_3
REMARK    2  A    between atoms: C_8  and  C_9
REMARK    3  A    between atoms: C_10  and  C_11
REMARK                            x       y       z     vdW  Elec       q    Type
REMARK                         _______ _______ _______ _____ _____    ______ ____
ROOT
ATOM      1  C   UNL     1      33.984  58.872  57.125  0.00  0.00    +0.000 A 
ATOM      2  C   UNL     1      34.384  58.673  55.827  0.00  0.00    +0.000 A 
ATOM      3  C   UNL     1      35.592  57.998  55.645  0.00  0.00    +0.000 A 
ATOM      4  O   UNL     1      36.040  57.772  54.358  0.00  0.00    +0.000 OA
ATOM      5  C   UNL     1      36.311  57.574  56.738  0.00  0.00    +0.000 A 
ATOM      6  C   UNL     1      35.949  57.752  58.015  0.00  0.00    +0.000 A 
ATOM      7  C   UNL     1      34.719  58.440  58.170  0.00  0.00    +0.000 A 
ENDROOT
BRANCH   1   9
ATOM      8  C   UNL     1      32.189  60.329  56.282  0.00  0.00    +0.000 C 
ATOM      9  O   UNL     1      32.774  59.548  57.289  0.00  0.00    +0.000 OA
ENDBRANCH   1   9
BRANCH   6  10
ATOM     10  C   UNL     1      36.529  57.402  59.265  0.00  0.00    +0.000 C 
ATOM     11  C   UNL     1      36.369  56.340  59.879  0.00  0.00    +0.000 C 
BRANCH  11  12
ATOM     12  C   UNL     1      35.582  55.228  59.497  0.00  0.00    +0.000 A 
ATOM     13  C   UNL     1      34.273  55.109  60.031  0.00  0.00    +0.000 A 
ATOM     14  C   UNL     1      33.456  54.057  59.704  0.00  0.00    +0.000 A 
ATOM     15  C   UNL     1      33.834  53.049  58.847  0.00  0.00    +0.000 A 
ATOM     16  O   UNL     1      32.982  52.000  58.540  0.00  0.00    +0.000 OA
ATOM     17  C   UNL     1      35.115  53.156  58.320  0.00  0.00    +0.000 A 
ATOM     18  C   UNL     1      35.916  54.223  58.663  0.00  0.00    +0.000 A 
ENDBRANCH  11  12
ENDBRANCH   6  10
TORSDOF 3
ENDMDL
MODEL 4
REMARK VINA RESULT:      -6.0     12.574     14.624
REMARK  Name = 
REMARK  3 active torsions:
REMARK  status: ('A' for Active; 'I' for Inactive)
REMARK    1  A    between atoms: O_2  and  C_3
REMARK    2  A    between atoms: C_8  and  C_9
REMARK    3  A    between atoms: C_10  and  C_11
REMARK                            x       y       z     vdW  Elec       q    Type
REMARK                         _______ _______ _______ _____ _____    ______ ____
ROOT
ATOM      1  C   UNL     1      36.312  52.924  58.986  0.00  0.00    +0.000 A 
ATOM      2  C   UNL     1      35.089  52.431  58.607  0.00  0.00    +0.000 A 
ATOM      3  C   UNL     1      33.979  53.220  58.911  0.00  0.00    +0.000 A 
ATOM      4  O   UNL     1      32.724  52.770  58.551  0.00  0.00    +0.000 OA
ATOM      5  C   UNL     1      34.150  54.421  59.559  0.00  0.00    +0.000 A 
ATOM      6  C   UNL     1      35.328  54.930  59.941  0.00  0.00    +0.000 A 
ATOM      7  C   UNL     1      36.437  54.108  59.620  0.00  0.00    +0.000 A 
ENDROOT
BRANCH   1   9
ATOM      8  C   UNL     1      38.739  52.543  58.843  0.00  0.00    +0.000 C 
ATOM      9  O   UNL     1      37.412  52.122  58.674  0.00  0.00    +0.000 OA
ENDBRANCH   1   9
BRANCH   6  10
ATOM     10  C   UNL     1      35.721  56.124  60.606  0.00  0.00    +0.000 C 
ATOM     11  C   UNL     1      35.793  57.254  60.108  0.00  0.00    +0.000 C 
BRANCH  11  12
ATOM     12  C   UNL     1      35.510  57.634  58.776  0.00  0.00    +0.000 A 
ATOM     13  C   UNL     1      34.249  58.219  58.491  0.00  0.00    +0.000 A 
ATOM     14  C   UNL     1      33.907  58.610  57.222  0.00  0.00    +0.000 A 
ATOM     15  C   UNL     1      34.746  58.469  56.140  0.00  0.00    +0.000 A 
ATOM     16  O   UNL     1      34.367  58.876  54.870  0.00  0.00    +0.000 OA
ATOM     17  C   UNL     1      35.983  57.897  56.408  0.00  0.00    +0.000 A 
ATOM     18  C   UNL     1      36.302  57.513  57.692  0.00  0.00    +0.000 A 
ENDBRANCH  11  12
ENDBRANCH   6  10
TORSDOF 3
ENDMDL
MODEL 5
REMARK VINA RESULT:      -5.9     12.176     14.451
REMARK  Name = 
REMARK  3 active torsions:
REMARK  status: ('A' for Active; 'I' for Inactive)
REMARK    1  A    between atoms: O_2  and  C_3
REMARK    2  A    between atoms: C_8  and  C_9
REMARK    3  A    between atoms: C_10  and  C_11
REMARK                            x       y       z     vdW  Elec       q    Type
REMARK                         _______ _______ _______ _____ _____    ______ ____
ROOT
ATOM      1  C   UNL     1      40.040  53.190  58.761  0.00  0.00    +0.000 A 
ATOM      2  C   UNL     1      40.613  53.656  59.918  0.00  0.00    +0.000 A 
ATOM      3  C   UNL     1      39.822  54.484  60.715  0.00  0.00    +0.000 A 
ATOM      4  O   UNL     1      40.352  54.980  61.889  0.00  0.00    +0.000 OA
ATOM      5  C   UNL     1      38.540  54.791  60.322  0.00  0.00    +0.000 A 
ATOM      6  C   UNL     1      37.952  54.353  59.201  0.00  0.00    +0.000 A 
ATOM      7  C   UNL     1      38.778  53.514  58.412  0.00  0.00    +0.000 A 
ENDROOT
BRANCH   1   9
ATOM      8  C   UNL     1      42.179  52.066  58.293  0.00  0.00    +0.000 C 
ATOM      9  O   UNL     1      40.845  52.363  57.976  0.00  0.00    +0.000 OA
ENDBRANCH   1   9
BRANCH   6  10
ATOM     10  C   UNL     1      36.669  54.543  58.619  0.00  0.00    +0.000 C 
ATOM     11  C   UNL     1      35.636  53.922  58.896  0.00  0.00    +0.000 C 
BRANCH  11  12
ATOM     12  C   UNL     1      35.475  52.885  59.844  0.00  0.00    +0.000 A 
ATOM     13  C   UNL     1      35.406  51.546  59.381  0.00  0.00    +0.000 A 
ATOM     14  C   UNL     1      35.251  50.493  60.245  0.00  0.00    +0.000 A 
ATOM     15  C   UNL     1      35.151  50.647  61.609  0.00  0.00    +0.000 A 
ATOM     16  O   UNL     1      34.995  49.558  62.452  0.00  0.00    +0.000 OA
ATOM     17  C   UNL     1      35.218  51.954  62.073  0.00  0.00    +0.000 A 
ATOM     18  C   UNL     1      35.375  52.995  61.184  0.00  0.00    +0.000 A 
ENDBRANCH  11  12
ENDBRANCH   6  10
TORSDOF 3
ENDMDL
MODEL 6
REMARK VINA RESULT:      -5.7     11.877     14.196
REMARK  Name = 
REMARK  3 active torsions:
REMARK  status: ('A' for Active; 'I' for Inactive)
REMARK    1  A    between atoms: O_2  and  C_3
REMARK    2  A    between atoms: C_8  and  C_9
REMARK    3  A    between atoms: C_10  and  C_11
REMARK                            x       y       z     vdW  Elec       q    Type
REMARK                         _______ _______ _______ _____ _____    ______ ____
ROOT
ATOM      1  C   UNL     1      39.657  54.503  60.656  0.00  0.00    +0.000 A 
ATOM      2  C   UNL     1      40.218  53.758  59.650  0.00  0.00    +0.000 A 
ATOM      3  C   UNL     1      39.365  53.359  58.620  0.00  0.00    +0.000 A 
ATOM      4  O   UNL     1      39.879  52.608  57.583  0.00  0.00    +0.000 OA
ATOM      5  C   UNL     1      38.037  53.718  58.654  0.00  0.00    +0.000 A 
ATOM      6  C   UNL     1      37.459  54.443  59.620  0.00  0.00    +0.000 A 
ATOM      7  C   UNL     1      38.349  54.833  60.652  0.00  0.00    +0.000 A 
ENDROOT
BRANCH   1   9
ATOM      8  C   UNL     1      40.818  54.082  62.785  0.00  0.00    +0.000 C 
ATOM      9  O   UNL     1      40.524  54.893  61.678  0.00  0.00    +0.000 OA
ENDBRANCH   1   9
BRANCH   6  10
ATOM     10  C   UNL     1      36.138  54.916  59.846  0.00  0.00    +0.000 C 
ATOM     11  C   UNL     1      35.201  54.275  60.340  0.00  0.00    +0.000 C 
BRANCH  11  12
ATOM     12  C   UNL     1      35.212  52.936  60.794  0.00  0.00    +0.000 A 
ATOM     13  C   UNL     1      34.843  51.910  59.886  0.00  0.00    +0.000 A 
ATOM     14  C   UNL     1      34.830  50.590  60.260  0.00  0.00    +0.000 A 
ATOM     15  C   UNL     1      35.168  50.162  61.523  0.00  0.00    +0.000 A 
ATOM     16  O   UNL     1      35.144  48.819  61.865  0.00  0.00    +0.000 OA
ATOM     17  C   UNL     1      35.531  51.160  62.419  0.00  0.00    +0.000 A 
ATOM     18  C   UNL     1      35.536  52.478  62.019  0.00  0.00    +0.000 A 
ENDBRANCH  11  12
ENDBRANCH   6  10
TORSDOF 3
ENDMDL
MODEL 7
REMARK VINA RESULT:      -5.6     10.501     12.275
REMARK  Name = 
REMARK  3 active torsions:
REMARK  status: ('A' for Active; 'I' for Inactive)
REMARK    1  A    between atoms: O_2  and  C_3
REMARK    2  A    between atoms: C_8  and  C_9
REMARK    3  A    between atoms: C_10  and  C_11
REMARK                            x       y       z     vdW  Elec       q    Type
REMARK                         _______ _______ _______ _____ _____    ______ ____
ROOT
ATOM      1  C   UNL     1      35.900  49.608  61.364  0.00  0.00    +0.000 A 
ATOM      2  C   UNL     1      37.232  49.678  61.041  0.00  0.00    +0.000 A 
ATOM      3  C   UNL     1      37.563  50.454  59.930  0.00  0.00    +0.000 A 
ATOM      4  O   UNL     1      38.890  50.557  59.562  0.00  0.00    +0.000 OA
ATOM      5  C   UNL     1      36.573  51.097  59.224  0.00  0.00    +0.000 A 
ATOM      6  C   UNL     1      35.267  51.050  59.512  0.00  0.00    +0.000 A 
ATOM      7  C   UNL     1      34.959  50.255  60.645  0.00  0.00    +0.000 A 
ENDROOT
BRANCH   1   9
ATOM      8  C   UNL     1      34.638  49.210  63.438  0.00  0.00    +0.000 C 
ATOM      9  O   UNL     1      35.586  48.828  62.478  0.00  0.00    +0.000 OA
ENDBRANCH   1   9
BRANCH   6  10
ATOM     10  C   UNL     1      34.104  51.625  58.930  0.00  0.00    +0.000 C 
ATOM     11  C   UNL     1      33.902  52.828  58.723  0.00  0.00    +0.000 C 
BRANCH  11  12
ATOM     12  C   UNL     1      34.762  53.913  59.011  0.00  0.00    +0.000 A 
ATOM     13  C   UNL     1      34.595  54.604  60.238  0.00  0.00    +0.000 A 
ATOM     14  C   UNL     1      35.393  55.665  60.581  0.00  0.00    +0.000 A 
ATOM     15  C   UNL     1      36.404  56.137  59.775  0.00  0.00    +0.000 A 
ATOM     16  O   UNL     1      37.192  57.213  60.155  0.00  0.00    +0.000 OA
ATOM     17  C   UNL     1      36.577  55.467  58.571  0.00  0.00    +0.000 A 
ATOM     18  C   UNL     1      35.762  54.403  58.250  0.00  0.00    +0.000 A 
ENDBRANCH  11  12
ENDBRANCH   6  10
TORSDOF 3
ENDMDL
MODEL 8
REMARK VINA RESULT:      -5.5      3.728      6.769
REMARK  Name = 
REMARK  3 active torsions:
REMARK  status: ('A' for Active; 'I' for Inactive)
REMARK    1  A    between atoms: O_2  and  C_3
REMARK    2  A    between atoms: C_8  and  C_9
REMARK    3  A    between atoms: C_10  and  C_11
REMARK                            x       y       z     vdW  Elec       q    Type
REMARK                         _______ _______ _______ _____ _____    ______ ____
ROOT
ATOM      1  C   UNL     1      28.055  46.152  62.471  0.00  0.00    +0.000 A 
ATOM      2  C   UNL     1      29.031  47.111  62.373  0.00  0.00    +0.000 A 
ATOM      3  C   UNL     1      30.342  46.653  62.234  0.00  0.00    +0.000 A 
ATOM      4  O   UNL     1      31.363  47.578  62.131  0.00  0.00    +0.000 OA
ATOM      5  C   UNL     1      30.595  45.302  62.202  0.00  0.00    +0.000 A 
ATOM      6  C   UNL     1      29.667  44.341  62.294  0.00  0.00    +0.000 A 
ATOM      7  C   UNL     1      28.345  44.835  62.435  0.00  0.00    +0.000 A 
ENDROOT
BRANCH   1   9
ATOM      8  C   UNL     1      26.333  47.419  63.690  0.00  0.00    +0.000 C 
ATOM      9  O   UNL     1      26.750  46.627  62.610  0.00  0.00    +0.000 OA
ENDBRANCH   1   9
BRANCH   6  10
ATOM     10  C   UNL     1      29.709  42.920  62.283  0.00  0.00    +0.000 C 
ATOM     11  C   UNL     1      30.344  42.209  61.495  0.00  0.00    +0.000 C 
BRANCH  11  12
ATOM     12  C   UNL     1      31.172  42.624  60.427  0.00  0.00    +0.000 A 
ATOM     13  C   UNL     1      32.560  42.789  60.668  0.00  0.00    +0.000 A 
ATOM     14  C   UNL     1      33.420  43.190  59.678  0.00  0.00    +0.000 A 
ATOM     15  C   UNL     1      33.012  43.460  58.391  0.00  0.00    +0.000 A 
ATOM     16  O   UNL     1      33.910  43.863  57.415  0.00  0.00    +0.000 OA
ATOM     17  C   UNL     1      31.654  43.301  58.144  0.00  0.00    +0.000 A 
ATOM     18  C   UNL     1      30.811  42.897  59.156  0.00  0.00    +0.000 A 
ENDBRANCH  11  12
ENDBRANCH   6  10
TORSDOF 3
ENDMDL
MODEL 9
REMARK VINA RESULT:      -5.5     13.958     16.216
REMARK  Name = 
REMARK  3 active torsions:
REMARK  status: ('A' for Active; 'I' for Inactive)
REMARK    1  A    between atoms: O_2  and  C_3
REMARK    2  A    between atoms: C_8  and  C_9
REMARK    3  A    between atoms: C_10  and  C_11
REMARK                            x       y       z     vdW  Elec       q    Type
REMARK                         _______ _______ _______ _____ _____    ______ ____
ROOT
ATOM      1  C   UNL     1      34.549  54.742  59.111  0.00  0.00    +0.000 A 
ATOM      2  C   UNL     1      35.715  54.069  58.846  0.00  0.00    +0.000 A 
ATOM      3  C   UNL     1      36.872  54.843  58.746  0.00  0.00    +0.000 A 
ATOM      4  O   UNL     1      38.072  54.214  58.480  0.00  0.00    +0.000 OA
ATOM      5  C   UNL     1      36.800  56.207  58.912  0.00  0.00    +0.000 A 
ATOM      6  C   UNL     1      35.680  56.894  59.171  0.00  0.00    +0.000 A 
ATOM      7  C   UNL     1      34.521  56.082  59.267  0.00  0.00    +0.000 A 
ENDROOT
BRANCH   1   9
ATOM      8  C   UNL     1      33.305  52.670  58.649  0.00  0.00    +0.000 C 
ATOM      9  O   UNL     1      33.402  53.954  59.207  0.00  0.00    +0.000 OA
ENDBRANCH   1   9
BRANCH   6  10
ATOM     10  C   UNL     1      35.388  58.270  59.375  0.00  0.00    +0.000 C 
ATOM     11  C   UNL     1      35.334  59.147  58.504  0.00  0.00    +0.000 C 
BRANCH  11  12
ATOM     12  C   UNL     1      35.547  59.003  57.113  0.00  0.00    +0.000 A 
ATOM     13  C   UNL     1      36.857  59.197  56.604  0.00  0.00    +0.000 A 
ATOM     14  C   UNL     1      37.134  59.073  55.267  0.00  0.00    +0.000 A 
ATOM     15  C   UNL     1      36.180  58.756  54.327  0.00  0.00    +0.000 A 
ATOM     16  O   UNL     1      36.497  58.639  52.982  0.00  0.00    +0.000 OA
ATOM     17  C   UNL     1      34.894  58.564  54.815  0.00  0.00    +0.000 A 
ATOM     18  C   UNL     1      34.642  58.694  56.163  0.00  0.00    +0.000 A 
ENDBRANCH  11  12
ENDBRANCH   6  10
TORSDOF 3
ENDMDL
MODEL 10
REMARK VINA RESULT:      -5.5     11.169     12.892
REMARK  Name = 
REMARK  3 active torsions:
REMARK  status: ('A' for Active; 'I' for Inactive)
REMARK    1  A    between atoms: O_2  and  C_3
REMARK    2  A    between atoms: C_8  and  C_9
REMARK    3  A    between atoms: C_10  and  C_11
REMARK                            x       y       z     vdW  Elec       q    Type
REMARK                         _______ _______ _______ _____ _____    ______ ____
ROOT
ATOM      1  C   UNL     1      36.006  50.313  60.621  0.00  0.00    +0.000 A 
ATOM      2  C   UNL     1      34.725  50.425  60.141  0.00  0.00    +0.000 A 
ATOM      3  C   UNL     1      34.529  51.327  59.095  0.00  0.00    +0.000 A 
ATOM      4  O   UNL     1      33.258  51.478  58.576  0.00  0.00    +0.000 OA
ATOM      5  C   UNL     1      35.593  52.045  58.602  0.00  0.00    +0.000 A 
ATOM      6  C   UNL     1      36.853  51.959  59.046  0.00  0.00    +0.000 A 
ATOM      7  C   UNL     1      37.023  51.036  60.108  0.00  0.00    +0.000 A 
ENDROOT
BRANCH   1   9
ATOM      8  C   UNL     1      37.127  49.593  62.690  0.00  0.00    +0.000 C 
ATOM      9  O   UNL     1      36.185  49.407  61.667  0.00  0.00    +0.000 OA
ENDBRANCH   1   9
BRANCH   6  10
ATOM     10  C   UNL     1      38.074  52.593  58.687  0.00  0.00    +0.000 C 
ATOM     11  C   UNL     1      38.287  53.811  58.648  0.00  0.00    +0.000 C 
BRANCH  11  12
ATOM     12  C   UNL     1      37.384  54.859  58.942  0.00  0.00    +0.000 A 
ATOM     13  C   UNL     1      37.276  55.304  60.285  0.00  0.00    +0.000 A 
ATOM     14  C   UNL     1      36.420  56.315  60.641  0.00  0.00    +0.000 A 
ATOM     15  C   UNL     1      35.611  56.968  59.739  0.00  0.00    +0.000 A 
ATOM     16  O   UNL     1      34.758  57.987  60.135  0.00  0.00    +0.000 OA
ATOM     17  C   UNL     1      35.709  56.540  58.421  0.00  0.00    +0.000 A 
ATOM     18  C   UNL     1      36.577  55.522  58.090  0.00  0.00    +0.000 A 
ENDBRANCH  11  12
ENDBRANCH   6  10
TORSDOF 3
ENDMDL
