REMARK  Name = 
REMARK  3 active torsions:
REMARK  status: ('A' for Active; 'I' for Inactive)
REMARK    1  A    between atoms: O_2  and  C_3
REMARK    2  A    between atoms: C_8  and  C_9
REMARK    3  A    between atoms: C_10  and  C_11
REMARK                            x       y       z     vdW  Elec       q    Type
REMARK                         _______ _______ _______ _____ _____    ______ ____
ROOT
ATOM      1  C   UNL     1      -3.324   0.448  -0.080  0.00  0.00    +0.000 A 
ATOM      2  C   UNL     1      -2.994  -0.006  -1.332  0.00  0.00    +0.000 A 
ATOM      3  C   UNL     1      -1.643  -0.267  -1.564  0.00  0.00    +0.000 A 
ATOM      4  O   UNL     1      -1.258  -0.726  -2.808  0.00  0.00    +0.000 OA
ATOM      5  C   UNL     1      -0.725  -0.065  -0.560  0.00  0.00    +0.000 A 
ATOM      6  C   UNL     1      -1.013   0.376   0.671  0.00  0.00    +0.000 A 
ATOM      7  C   UNL     1      -2.392   0.633   0.878  0.00  0.00    +0.000 A 
ENDROOT
BRANCH   1   9
ATOM      8  C   UNL     1      -5.186   1.173   1.356  0.00  0.00    +0.000 C 
ATOM      9  O   UNL     1      -4.679   0.704   0.135  0.00  0.00    +0.000 OA
ENDBRANCH   1   9
BRANCH   6  10
ATOM     10  C   UNL     1      -0.238   0.648   1.831  0.00  0.00    +0.000 C 
ATOM     11  C   UNL     1       0.987   0.518   1.945  0.00  0.00    +0.000 C 
BRANCH  11  12
ATOM     12  C   UNL     1       1.906   0.072   0.967  0.00  0.00    +0.000 A 
ATOM     13  C   UNL     1       3.280  -0.004   1.312  0.00  0.00    +0.000 A 
ATOM     14  C   UNL     1       4.225  -0.427   0.413  0.00  0.00    +0.000 A 
ATOM     15  C   UNL     1       3.922  -0.806  -0.875  0.00  0.00    +0.000 A 
ATOM     16  O   UNL     1       4.904  -1.229  -1.757  0.00  0.00    +0.000 OA
ATOM     17  C   UNL     1       2.579  -0.735  -1.223  0.00  0.00    +0.000 A 
ATOM     18  C   UNL     1       1.649  -0.307  -0.301  0.00  0.00    +0.000 A 
ENDBRANCH  11  12
ENDBRANCH   6  10
TORSDOF 3
