MODEL 1
REMARK VINA RESULT:      -6.6      0.000      0.000
REMARK  Name = 
REMARK  4 active torsions:
REMARK  status: ('A' for Active; 'I' for Inactive)
REMARK    1  A    between atoms: O_2  and  C_3
REMARK    2  A    between atoms: C_6  and  C_7
REMARK    3  A    between atoms: C_8  and  C_9
REMARK    4  A    between atoms: C_11  and  O_12
REMARK                            x       y       z     vdW  Elec       q    Type
REMARK                         _______ _______ _______ _____ _____    ______ ____
ROOT
ATOM      1  C   UNL     1      36.132  56.540  56.728  0.00  0.00    +0.000 C 
ATOM      2  C   UNL     1      35.918  56.497  58.007  0.00  0.00    +0.000 C 
ENDROOT
BRANCH   2   3
ATOM      3  C   UNL     1      36.193  55.368  58.874  0.00  0.00    +0.000 A 
ATOM      4  C   UNL     1      37.433  54.766  58.867  0.00  0.00    +0.000 A 
ATOM      5  C   UNL     1      37.747  53.690  59.671  0.00  0.00    +0.000 A 
ATOM      6  C   UNL     1      36.757  53.213  60.513  0.00  0.00    +0.000 A 
ATOM      7  C   UNL     1      35.502  53.778  60.559  0.00  0.00    +0.000 A 
ATOM      8  C   UNL     1      35.246  54.853  59.730  0.00  0.00    +0.000 A 
ATOM      9  O   UNL     1      34.702  53.101  61.493  0.00  0.00    +0.000 OA
ATOM     10  C   UNL     1      35.437  51.983  61.948  0.00  0.00    +0.000 C 
ATOM     11  O   UNL     1      36.750  52.176  61.420  0.00  0.00    +0.000 OA
BRANCH   5  12
ATOM     12  O   UNL     1      39.008  53.107  59.639  0.00  0.00    +0.000 OA
ATOM     13  C   UNL     1      39.454  52.527  58.427  0.00  0.00    +0.000 C 
ENDBRANCH   5  12
ENDBRANCH   2   3
BRANCH   1  17
ATOM     14  C   UNL     1      35.412  59.838  54.143  0.00  0.00    +0.000 A 
ATOM     15  C   UNL     1      34.618  59.621  55.243  0.00  0.00    +0.000 A 
ATOM     16  C   UNL     1      34.824  58.566  56.096  0.00  0.00    +0.000 A 
ATOM     17  C   UNL     1      35.852  57.679  55.869  0.00  0.00    +0.000 A 
ATOM     18  C   UNL     1      36.644  57.899  54.769  0.00  0.00    +0.000 A 
ATOM     19  C   UNL     1      36.445  58.956  53.906  0.00  0.00    +0.000 A 
ATOM     20  O   UNL     1      37.238  59.186  52.794  0.00  0.00    +0.000 OA
BRANCH  14  22
ATOM     21  C   UNL     1      35.202  62.230  53.825  0.00  0.00    +0.000 C 
ATOM     22  O   UNL     1      35.166  60.920  53.306  0.00  0.00    +0.000 OA
ENDBRANCH  14  22
ENDBRANCH   1  17
TORSDOF 4
ENDMDL
MODEL 2
REMARK VINA RESULT:      -6.5     12.767     13.842
REMARK  Name = 
REMARK  4 active torsions:
REMARK  status: ('A' for Active; 'I' for Inactive)
REMARK    1  A    between atoms: O_2  and  C_3
REMARK    2  A    between atoms: C_6  and  C_7
REMARK    3  A    between atoms: C_8  and  C_9
REMARK    4  A    between atoms: C_11  and  O_12
REMARK                            x       y       z     vdW  Elec       q    Type
REMARK                         _______ _______ _______ _____ _____    ______ ____
ROOT
ATOM      1  C   UNL     1      30.693  45.988  62.357  0.00  0.00    +0.000 C 
ATOM      2  C   UNL     1      30.925  44.880  61.723  0.00  0.00    +0.000 C 
ENDROOT
BRANCH   2   3
ATOM      3  C   UNL     1      32.231  44.383  61.336  0.00  0.00    +0.000 A 
ATOM      4  C   UNL     1      32.400  43.721  60.138  0.00  0.00    +0.000 A 
ATOM      5  C   UNL     1      33.619  43.228  59.721  0.00  0.00    +0.000 A 
ATOM      6  C   UNL     1      34.704  43.419  60.560  0.00  0.00    +0.000 A 
ATOM      7  C   UNL     1      34.590  44.073  61.767  0.00  0.00    +0.000 A 
ATOM      8  C   UNL     1      33.344  44.544  62.131  0.00  0.00    +0.000 A 
ATOM      9  O   UNL     1      35.837  44.124  62.408  0.00  0.00    +0.000 OA
ATOM     10  C   UNL     1      36.740  43.352  61.641  0.00  0.00    +0.000 C 
ATOM     11  O   UNL     1      36.028  43.056  60.439  0.00  0.00    +0.000 OA
BRANCH   5  12
ATOM     12  O   UNL     1      33.755  42.566  58.507  0.00  0.00    +0.000 OA
ATOM     13  C   UNL     1      34.031  43.331  57.349  0.00  0.00    +0.000 C 
ENDBRANCH   5  12
ENDBRANCH   2   3
BRANCH   1  17
ATOM     14  C   UNL     1      26.854  47.499  63.381  0.00  0.00    +0.000 A 
ATOM     15  C   UNL     1      27.418  46.469  64.096  0.00  0.00    +0.000 A 
ATOM     16  C   UNL     1      28.654  45.960  63.790  0.00  0.00    +0.000 A 
ATOM     17  C   UNL     1      29.378  46.475  62.739  0.00  0.00    +0.000 A 
ATOM     18  C   UNL     1      28.811  47.504  62.027  0.00  0.00    +0.000 A 
ATOM     19  C   UNL     1      27.570  48.023  62.326  0.00  0.00    +0.000 A 
ATOM     20  O   UNL     1      26.990  49.059  61.614  0.00  0.00    +0.000 OA
BRANCH  14  22
ATOM     21  C   UNL     1      25.374  48.491  65.023  0.00  0.00    +0.000 C 
ATOM     22  O   UNL     1      25.597  47.983  63.726  0.00  0.00    +0.000 OA
ENDBRANCH  14  22
ENDBRANCH   1  17
TORSDOF 4
ENDMDL
MODEL 3
REMARK VINA RESULT:      -6.5      1.378      2.073
REMARK  Name = 
REMARK  4 active torsions:
REMARK  status: ('A' for Active; 'I' for Inactive)
REMARK    1  A    between atoms: O_2  and  C_3
REMARK    2  A    between atoms: C_6  and  C_7
REMARK    3  A    between atoms: C_8  and  C_9
REMARK    4  A    between atoms: C_11  and  O_12
REMARK                            x       y       z     vdW  Elec       q    Type
REMARK                         _______ _______ _______ _____ _____    ______ ____
ROOT
ATOM      1  C   UNL     1      36.452  56.266  56.542  0.00  0.00    +0.000 C 
ATOM      2  C   UNL     1      36.198  56.055  57.796  0.00  0.00    +0.000 C 
ENDROOT
BRANCH   2   3
ATOM      3  C   UNL     1      36.598  54.887  58.557  0.00  0.00    +0.000 A 
ATOM      4  C   UNL     1      35.999  53.666  58.331  0.00  0.00    +0.000 A 
ATOM      5  C   UNL     1      36.341  52.525  59.025  0.00  0.00    +0.000 A 
ATOM      6  C   UNL     1      37.332  52.637  59.986  0.00  0.00    +0.000 A 
ATOM      7  C   UNL     1      37.962  53.832  60.252  0.00  0.00    +0.000 A 
ATOM      8  C   UNL     1      37.576  54.941  59.524  0.00  0.00    +0.000 A 
ATOM      9  O   UNL     1      38.917  53.659  61.265  0.00  0.00    +0.000 OA
ATOM     10  C   UNL     1      38.785  52.339  61.751  0.00  0.00    +0.000 C 
ATOM     11  O   UNL     1      37.891  51.706  60.835  0.00  0.00    +0.000 OA
BRANCH   5  12
ATOM     12  O   UNL     1      35.718  51.309  58.771  0.00  0.00    +0.000 OA
ATOM     13  C   UNL     1      34.692  50.880  59.648  0.00  0.00    +0.000 C 
ENDBRANCH   5  12
ENDBRANCH   2   3
BRANCH   1  17
ATOM     14  C   UNL     1      35.358  59.685  54.263  0.00  0.00    +0.000 A 
ATOM     15  C   UNL     1      34.643  59.327  55.382  0.00  0.00    +0.000 A 
ATOM     16  C   UNL     1      34.971  58.230  56.137  0.00  0.00    +0.000 A 
ATOM     17  C   UNL     1      36.044  57.442  55.790  0.00  0.00    +0.000 A 
ATOM     18  C   UNL     1      36.757  57.803  54.672  0.00  0.00    +0.000 A 
ATOM     19  C   UNL     1      36.436  58.903  53.907  0.00  0.00    +0.000 A 
ATOM     20  O   UNL     1      37.147  59.274  52.778  0.00  0.00    +0.000 OA
BRANCH  14  22
ATOM     21  C   UNL     1      35.395  62.087  53.952  0.00  0.00    +0.000 C 
ATOM     22  O   UNL     1      34.990  60.805  53.527  0.00  0.00    +0.000 OA
ENDBRANCH  14  22
ENDBRANCH   1  17
TORSDOF 4
ENDMDL
MODEL 4
REMARK VINA RESULT:      -6.4      2.137      8.496
REMARK  Name = 
REMARK  4 active torsions:
REMARK  status: ('A' for Active; 'I' for Inactive)
REMARK    1  A    between atoms: O_2  and  C_3
REMARK    2  A    between atoms: C_6  and  C_7
REMARK    3  A    between atoms: C_8  and  C_9
REMARK    4  A    between atoms: C_11  and  O_12
REMARK                            x       y       z     vdW  Elec       q    Type
REMARK                         _______ _______ _______ _____ _____    ______ ____
ROOT
ATOM      1  C   UNL     1      35.441  55.124  58.618  0.00  0.00    +0.000 C 
ATOM      2  C   UNL     1      36.221  55.476  57.643  0.00  0.00    +0.000 C 
ENDROOT
BRANCH   2   3
ATOM      3  C   UNL     1      36.333  56.810  57.086  0.00  0.00    +0.000 A 
ATOM      4  C   UNL     1      36.418  56.994  55.722  0.00  0.00    +0.000 A 
ATOM      5  C   UNL     1      36.526  58.239  55.140  0.00  0.00    +0.000 A 
ATOM      6  C   UNL     1      36.547  59.337  55.984  0.00  0.00    +0.000 A 
ATOM      7  C   UNL     1      36.465  59.209  57.353  0.00  0.00    +0.000 A 
ATOM      8  C   UNL     1      36.359  57.936  57.878  0.00  0.00    +0.000 A 
ATOM      9  O   UNL     1      36.510  60.474  57.959  0.00  0.00    +0.000 OA
ATOM     10  C   UNL     1      36.770  61.422  56.943  0.00  0.00    +0.000 C 
ATOM     11  O   UNL     1      36.644  60.687  55.726  0.00  0.00    +0.000 OA
BRANCH   5  12
ATOM     12  O   UNL     1      36.608  58.389  53.761  0.00  0.00    +0.000 OA
ATOM     13  C   UNL     1      35.446  58.778  53.054  0.00  0.00    +0.000 C 
ENDBRANCH   5  12
ENDBRANCH   2   3
BRANCH   1  17
ATOM     14  C   UNL     1      35.133  51.250  60.342  0.00  0.00    +0.000 A 
ATOM     15  C   UNL     1      35.271  51.405  58.983  0.00  0.00    +0.000 A 
ATOM     16  C   UNL     1      35.372  52.642  58.397  0.00  0.00    +0.000 A 
ATOM     17  C   UNL     1      35.339  53.782  59.167  0.00  0.00    +0.000 A 
ATOM     18  C   UNL     1      35.201  53.622  60.525  0.00  0.00    +0.000 A 
ATOM     19  C   UNL     1      35.099  52.385  61.123  0.00  0.00    +0.000 A 
ATOM     20  O   UNL     1      34.960  52.214  62.490  0.00  0.00    +0.000 OA
BRANCH  14  22
ATOM     21  C   UNL     1      36.204  49.261  61.219  0.00  0.00    +0.000 C 
ATOM     22  O   UNL     1      35.034  49.977  60.893  0.00  0.00    +0.000 OA
ENDBRANCH  14  22
ENDBRANCH   1  17
TORSDOF 4
ENDMDL
MODEL 5
REMARK VINA RESULT:      -6.2      1.711      8.742
REMARK  Name = 
REMARK  4 active torsions:
REMARK  status: ('A' for Active; 'I' for Inactive)
REMARK    1  A    between atoms: O_2  and  C_3
REMARK    2  A    between atoms: C_6  and  C_7
REMARK    3  A    between atoms: C_8  and  C_9
REMARK    4  A    between atoms: C_11  and  O_12
REMARK                            x       y       z     vdW  Elec       q    Type
REMARK                         _______ _______ _______ _____ _____    ______ ____
ROOT
ATOM      1  C   UNL     1      36.322  55.398  58.513  0.00  0.00    +0.000 C 
ATOM      2  C   UNL     1      35.856  56.609  58.514  0.00  0.00    +0.000 C 
ENDROOT
BRANCH   2   3
ATOM      3  C   UNL     1      35.495  57.378  57.339  0.00  0.00    +0.000 A 
ATOM      4  C   UNL     1      34.404  58.220  57.363  0.00  0.00    +0.000 A 
ATOM      5  C   UNL     1      34.017  58.974  56.276  0.00  0.00    +0.000 A 
ATOM      6  C   UNL     1      34.773  58.862  55.121  0.00  0.00    +0.000 A 
ATOM      7  C   UNL     1      35.872  58.036  55.043  0.00  0.00    +0.000 A 
ATOM      8  C   UNL     1      36.211  57.305  56.165  0.00  0.00    +0.000 A 
ATOM      9  O   UNL     1      36.447  58.117  53.766  0.00  0.00    +0.000 OA
ATOM     10  C   UNL     1      35.597  58.916  52.968  0.00  0.00    +0.000 C 
ATOM     11  O   UNL     1      34.654  59.466  53.888  0.00  0.00    +0.000 OA
BRANCH   5  12
ATOM     12  O   UNL     1      32.911  59.814  56.334  0.00  0.00    +0.000 OA
ATOM     13  C   UNL     1      32.410  60.184  57.605  0.00  0.00    +0.000 C 
ENDBRANCH   5  12
ENDBRANCH   2   3
BRANCH   1  17
ATOM     14  C   UNL     1      37.248  53.135  61.992  0.00  0.00    +0.000 A 
ATOM     15  C   UNL     1      38.223  53.854  61.341  0.00  0.00    +0.000 A 
ATOM     16  C   UNL     1      37.955  54.593  60.216  0.00  0.00    +0.000 A 
ATOM     17  C   UNL     1      36.681  54.637  59.699  0.00  0.00    +0.000 A 
ATOM     18  C   UNL     1      35.709  53.918  60.353  0.00  0.00    +0.000 A 
ATOM     19  C   UNL     1      35.968  53.173  61.483  0.00  0.00    +0.000 A 
ATOM     20  O   UNL     1      34.996  52.444  62.149  0.00  0.00    +0.000 OA
BRANCH  14  22
ATOM     21  C   UNL     1      38.484  51.335  63.040  0.00  0.00    +0.000 C 
ATOM     22  O   UNL     1      37.564  52.400  63.128  0.00  0.00    +0.000 OA
ENDBRANCH  14  22
ENDBRANCH   1  17
TORSDOF 4
ENDMDL
MODEL 6
REMARK VINA RESULT:      -6.2      1.979      8.306
REMARK  Name = 
REMARK  4 active torsions:
REMARK  status: ('A' for Active; 'I' for Inactive)
REMARK    1  A    between atoms: O_2  and  C_3
REMARK    2  A    between atoms: C_6  and  C_7
REMARK    3  A    between atoms: C_8  and  C_9
REMARK    4  A    between atoms: C_11  and  O_12
REMARK                            x       y       z     vdW  Elec       q    Type
REMARK                         _______ _______ _______ _____ _____    ______ ____
ROOT
ATOM      1  C   UNL     1      36.562  55.370  57.959  0.00  0.00    +0.000 C 
ATOM      2  C   UNL     1      36.247  56.619  58.110  0.00  0.00    +0.000 C 
ENDROOT
BRANCH   2   3
ATOM      3  C   UNL     1      35.613  57.460  57.114  0.00  0.00    +0.000 A 
ATOM      4  C   UNL     1      36.089  57.493  55.821  0.00  0.00    +0.000 A 
ATOM      5  C   UNL     1      35.525  58.274  54.835  0.00  0.00    +0.000 A 
ATOM      6  C   UNL     1      34.432  59.050  55.184  0.00  0.00    +0.000 A 
ATOM      7  C   UNL     1      33.917  59.055  56.461  0.00  0.00    +0.000 A 
ATOM      8  C   UNL     1      34.525  58.252  57.406  0.00  0.00    +0.000 A 
ATOM      9  O   UNL     1      32.819  59.926  56.535  0.00  0.00    +0.000 OA
ATOM     10  C   UNL     1      32.728  60.599  55.295  0.00  0.00    +0.000 C 
ATOM     11  O   UNL     1      33.657  59.922  54.449  0.00  0.00    +0.000 OA
BRANCH   5  12
ATOM     12  O   UNL     1      36.029  58.283  53.539  0.00  0.00    +0.000 OA
ATOM     13  C   UNL     1      36.886  59.342  53.156  0.00  0.00    +0.000 C 
ENDBRANCH   5  12
ENDBRANCH   2   3
BRANCH   1  17
ATOM     14  C   UNL     1      38.391  52.832  60.838  0.00  0.00    +0.000 A 
ATOM     15  C   UNL     1      38.367  54.195  61.016  0.00  0.00    +0.000 A 
ATOM     16  C   UNL     1      37.785  55.040  60.105  0.00  0.00    +0.000 A 
ATOM     17  C   UNL     1      37.197  54.537  58.967  0.00  0.00    +0.000 A 
ATOM     18  C   UNL     1      37.222  53.175  58.792  0.00  0.00    +0.000 A 
ATOM     19  C   UNL     1      37.805  52.318  59.701  0.00  0.00    +0.000 A 
ATOM     20  O   UNL     1      37.835  50.943  59.534  0.00  0.00    +0.000 OA
BRANCH  14  22
ATOM     21  C   UNL     1      39.000  52.401  63.143  0.00  0.00    +0.000 C 
ATOM     22  O   UNL     1      38.992  52.013  61.787  0.00  0.00    +0.000 OA
ENDBRANCH  14  22
ENDBRANCH   1  17
TORSDOF 4
ENDMDL
MODEL 7
REMARK VINA RESULT:      -6.2      1.407      2.826
REMARK  Name = 
REMARK  4 active torsions:
REMARK  status: ('A' for Active; 'I' for Inactive)
REMARK    1  A    between atoms: O_2  and  C_3
REMARK    2  A    between atoms: C_6  and  C_7
REMARK    3  A    between atoms: C_8  and  C_9
REMARK    4  A    between atoms: C_11  and  O_12
REMARK                            x       y       z     vdW  Elec       q    Type
REMARK                         _______ _______ _______ _____ _____    ______ ____
ROOT
ATOM      1  C   UNL     1      36.458  56.329  57.458  0.00  0.00    +0.000 C 
ATOM      2  C   UNL     1      35.989  55.534  58.370  0.00  0.00    +0.000 C 
ENDROOT
BRANCH   2   3
ATOM      3  C   UNL     1      36.750  54.538  59.099  0.00  0.00    +0.000 A 
ATOM      4  C   UNL     1      36.350  54.134  60.355  0.00  0.00    +0.000 A 
ATOM      5  C   UNL     1      37.036  53.191  61.091  0.00  0.00    +0.000 A 
ATOM      6  C   UNL     1      38.173  52.642  60.522  0.00  0.00    +0.000 A 
ATOM      7  C   UNL     1      38.616  53.010  59.271  0.00  0.00    +0.000 A 
ATOM      8  C   UNL     1      37.887  53.959  58.581  0.00  0.00    +0.000 A 
ATOM      9  O   UNL     1      39.782  52.302  58.944  0.00  0.00    +0.000 OA
ATOM     10  C   UNL     1      40.164  51.564  60.087  0.00  0.00    +0.000 C 
ATOM     11  O   UNL     1      39.063  51.697  60.986  0.00  0.00    +0.000 OA
BRANCH   5  12
ATOM     12  O   UNL     1      36.605  52.805  62.355  0.00  0.00    +0.000 OA
ATOM     13  C   UNL     1      35.509  51.915  62.451  0.00  0.00    +0.000 C 
ENDBRANCH   5  12
ENDBRANCH   2   3
BRANCH   1  17
ATOM     14  C   UNL     1      34.261  59.211  55.235  0.00  0.00    +0.000 A 
ATOM     15  C   UNL     1      34.000  59.004  56.569  0.00  0.00    +0.000 A 
ATOM     16  C   UNL     1      34.691  58.081  57.313  0.00  0.00    +0.000 A 
ATOM     17  C   UNL     1      35.683  57.324  56.735  0.00  0.00    +0.000 A 
ATOM     18  C   UNL     1      35.942  57.534  55.401  0.00  0.00    +0.000 A 
ATOM     19  C   UNL     1      35.253  58.458  54.646  0.00  0.00    +0.000 A 
ATOM     20  O   UNL     1      35.506  58.677  53.302  0.00  0.00    +0.000 OA
BRANCH  14  22
ATOM     21  C   UNL     1      32.195  60.423  54.870  0.00  0.00    +0.000 C 
ATOM     22  O   UNL     1      33.535  60.157  54.520  0.00  0.00    +0.000 OA
ENDBRANCH  14  22
ENDBRANCH   1  17
TORSDOF 4
ENDMDL
MODEL 8
REMARK VINA RESULT:      -6.2      1.911      8.644
REMARK  Name = 
REMARK  4 active torsions:
REMARK  status: ('A' for Active; 'I' for Inactive)
REMARK    1  A    between atoms: O_2  and  C_3
REMARK    2  A    between atoms: C_6  and  C_7
REMARK    3  A    between atoms: C_8  and  C_9
REMARK    4  A    between atoms: C_11  and  O_12
REMARK                            x       y       z     vdW  Elec       q    Type
REMARK                         _______ _______ _______ _____ _____    ______ ____
ROOT
ATOM      1  C   UNL     1      36.096  56.186  57.924  0.00  0.00    +0.000 C 
ATOM      2  C   UNL     1      36.297  56.727  56.763  0.00  0.00    +0.000 C 
ENDROOT
BRANCH   2   3
ATOM      3  C   UNL     1      35.910  58.070  56.374  0.00  0.00    +0.000 A 
ATOM      4  C   UNL     1      34.592  58.465  56.444  0.00  0.00    +0.000 A 
ATOM      5  C   UNL     1      34.169  59.728  56.086  0.00  0.00    +0.000 A 
ATOM      6  C   UNL     1      35.131  60.619  55.641  0.00  0.00    +0.000 A 
ATOM      7  C   UNL     1      36.462  60.276  55.552  0.00  0.00    +0.000 A 
ATOM      8  C   UNL     1      36.825  58.996  55.924  0.00  0.00    +0.000 A 
ATOM      9  O   UNL     1      37.210  61.362  55.074  0.00  0.00    +0.000 OA
ATOM     10  C   UNL     1      36.297  62.381  54.718  0.00  0.00    +0.000 C 
ATOM     11  O   UNL     1      35.039  61.928  55.218  0.00  0.00    +0.000 OA
BRANCH   5  12
ATOM     12  O   UNL     1      32.831  60.095  56.170  0.00  0.00    +0.000 OA
ATOM     13  C   UNL     1      32.109  60.292  54.968  0.00  0.00    +0.000 C 
ENDBRANCH   5  12
ENDBRANCH   2   3
BRANCH   1  17
ATOM     14  C   UNL     1      37.125  52.206  59.006  0.00  0.00    +0.000 A 
ATOM     15  C   UNL     1      38.068  53.207  59.028  0.00  0.00    +0.000 A 
ATOM     16  C   UNL     1      37.766  54.500  58.685  0.00  0.00    +0.000 A 
ATOM     17  C   UNL     1      36.489  54.839  58.301  0.00  0.00    +0.000 A 
ATOM     18  C   UNL     1      35.550  53.836  58.281  0.00  0.00    +0.000 A 
ATOM     19  C   UNL     1      35.842  52.534  58.624  0.00  0.00    +0.000 A 
ATOM     20  O   UNL     1      34.903  51.517  58.607  0.00  0.00    +0.000 OA
BRANCH  14  22
ATOM     21  C   UNL     1      38.821  50.599  59.648  0.00  0.00    +0.000 C 
ATOM     22  O   UNL     1      37.475  50.909  59.363  0.00  0.00    +0.000 OA
ENDBRANCH  14  22
ENDBRANCH   1  17
TORSDOF 4
ENDMDL
MODEL 9
REMARK VINA RESULT:      -6.1      2.048      8.343
REMARK  Name = 
REMARK  4 active torsions:
REMARK  status: ('A' for Active; 'I' for Inactive)
REMARK    1  A    between atoms: O_2  and  C_3
REMARK    2  A    between atoms: C_6  and  C_7
REMARK    3  A    between atoms: C_8  and  C_9
REMARK    4  A    between atoms: C_11  and  O_12
REMARK                            x       y       z     vdW  Elec       q    Type
REMARK                         _______ _______ _______ _____ _____    ______ ____
ROOT
ATOM      1  C   UNL     1      36.088  56.107  57.928  0.00  0.00    +0.000 C 
ATOM      2  C   UNL     1      36.332  56.667  56.783  0.00  0.00    +0.000 C 
ENDROOT
BRANCH   2   3
ATOM      3  C   UNL     1      35.908  57.993  56.380  0.00  0.00    +0.000 A 
ATOM      4  C   UNL     1      36.839  58.975  56.115  0.00  0.00    +0.000 A 
ATOM      5  C   UNL     1      36.491  60.252  55.729  0.00  0.00    +0.000 A 
ATOM      6  C   UNL     1      35.140  60.536  55.610  0.00  0.00    +0.000 A 
ATOM      7  C   UNL     1      34.170  59.592  55.863  0.00  0.00    +0.000 A 
ATOM      8  C   UNL     1      34.580  58.330  56.246  0.00  0.00    +0.000 A 
ATOM      9  O   UNL     1      32.895  60.146  55.666  0.00  0.00    +0.000 OA
ATOM     10  C   UNL     1      33.067  61.526  55.416  0.00  0.00    +0.000 C 
ATOM     11  O   UNL     1      34.476  61.689  55.252  0.00  0.00    +0.000 OA
BRANCH   5  12
ATOM     12  O   UNL     1      37.455  61.218  55.468  0.00  0.00    +0.000 OA
ATOM     13  C   UNL     1      37.846  62.082  56.519  0.00  0.00    +0.000 C 
ENDBRANCH   5  12
ENDBRANCH   2   3
BRANCH   1  17
ATOM     14  C   UNL     1      37.231  52.168  59.046  0.00  0.00    +0.000 A 
ATOM     15  C   UNL     1      38.129  53.207  59.116  0.00  0.00    +0.000 A 
ATOM     16  C   UNL     1      37.790  54.489  58.762  0.00  0.00    +0.000 A 
ATOM     17  C   UNL     1      36.519  54.775  58.319  0.00  0.00    +0.000 A 
ATOM     18  C   UNL     1      35.625  53.735  58.251  0.00  0.00    +0.000 A 
ATOM     19  C   UNL     1      35.955  52.444  58.604  0.00  0.00    +0.000 A 
ATOM     20  O   UNL     1      35.061  51.388  58.539  0.00  0.00    +0.000 OA
BRANCH  14  22
ATOM     21  C   UNL     1      38.973  50.616  59.699  0.00  0.00    +0.000 C 
ATOM     22  O   UNL     1      37.618  50.885  59.415  0.00  0.00    +0.000 OA
ENDBRANCH  14  22
ENDBRANCH   1  17
TORSDOF 4
ENDMDL
MODEL 10
REMARK VINA RESULT:      -5.9      1.920      8.519
REMARK  Name = 
REMARK  4 active torsions:
REMARK  status: ('A' for Active; 'I' for Inactive)
REMARK    1  A    between atoms: O_2  and  C_3
REMARK    2  A    between atoms: C_6  and  C_7
REMARK    3  A    between atoms: C_8  and  C_9
REMARK    4  A    between atoms: C_11  and  O_12
REMARK                            x       y       z     vdW  Elec       q    Type
REMARK                         _______ _______ _______ _____ _____    ______ ____
ROOT
ATOM      1  C   UNL     1      36.843  55.152  58.314  0.00  0.00    +0.000 C 
ATOM      2  C   UNL     1      35.974  56.056  57.979  0.00  0.00    +0.000 C 
ENDROOT
BRANCH   2   3
ATOM      3  C   UNL     1      36.218  57.181  57.099  0.00  0.00    +0.000 A 
ATOM      4  C   UNL     1      36.301  58.460  57.606  0.00  0.00    +0.000 A 
ATOM      5  C   UNL     1      36.530  59.566  56.814  0.00  0.00    +0.000 A 
ATOM      6  C   UNL     1      36.681  59.355  55.454  0.00  0.00    +0.000 A 
ATOM      7  C   UNL     1      36.608  58.098  54.896  0.00  0.00    +0.000 A 
ATOM      8  C   UNL     1      36.375  57.029  55.739  0.00  0.00    +0.000 A 
ATOM      9  O   UNL     1      36.795  58.174  53.507  0.00  0.00    +0.000 OA
ATOM     10  C   UNL     1      36.849  59.544  53.162  0.00  0.00    +0.000 C 
ATOM     11  O   UNL     1      36.916  60.228  54.413  0.00  0.00    +0.000 OA
BRANCH   5  12
ATOM     12  O   UNL     1      36.609  60.843  57.357  0.00  0.00    +0.000 OA
ATOM     13  C   UNL     1      37.881  61.455  57.461  0.00  0.00    +0.000 C 
ENDBRANCH   5  12
ENDBRANCH   2   3
BRANCH   1  17
ATOM     14  C   UNL     1      36.170  51.792  60.830  0.00  0.00    +0.000 A 
ATOM     15  C   UNL     1      35.529  52.986  61.065  0.00  0.00    +0.000 A 
ATOM     16  C   UNL     1      35.725  54.087  60.271  0.00  0.00    +0.000 A 
ATOM     17  C   UNL     1      36.585  54.028  59.198  0.00  0.00    +0.000 A 
ATOM     18  C   UNL     1      37.224  52.833  58.967  0.00  0.00    +0.000 A 
ATOM     19  C   UNL     1      37.033  51.721  59.758  0.00  0.00    +0.000 A 
ATOM     20  O   UNL     1      37.673  50.513  59.534  0.00  0.00    +0.000 OA
BRANCH  14  22
ATOM     21  C   UNL     1      34.829  49.865  61.429  0.00  0.00    +0.000 C 
ATOM     22  O   UNL     1      35.941  50.701  61.661  0.00  0.00    +0.000 OA
ENDBRANCH  14  22
ENDBRANCH   1  17
TORSDOF 4
ENDMDL
