REMARK  Name = 
REMARK  6 active torsions:
REMARK  status: ('A' for Active; 'I' for Inactive)
REMARK    1  A    between atoms: O_2  and  C_3
REMARK    2  A    between atoms: C_5  and  C_6
REMARK    3  A    between atoms: C_7  and  C_8
REMARK    4  A    between atoms: C_11  and  O_12
REMARK    5  A    between atoms: C_14  and  O_15
REMARK    6  A    between atoms: C_19  and  O_20
REMARK                            x       y       z     vdW  Elec       q    Type
REMARK                         _______ _______ _______ _____ _____    ______ ____
ROOT
ATOM      1  C   UNL     1      -0.792  -1.273  -2.042  0.00  0.00    +0.000 C 
ATOM      2  C   UNL     1       0.418  -1.368  -2.182  0.00  0.00    +0.000 C 
ENDROOT
BRANCH   1   5
ATOM      3  C   UNL     1      -3.764  -0.082  -0.331  0.00  0.00    +0.000 A 
ATOM      4  C   UNL     1      -2.885  -0.579  -1.224  0.00  0.00    +0.000 A 
ATOM      5  C   UNL     1      -1.491  -0.655  -0.976  0.00  0.00    +0.000 A 
ATOM      6  C   UNL     1      -1.121  -0.188   0.231  0.00  0.00    +0.000 A 
ATOM      7  C   UNL     1      -1.989   0.325   1.166  0.00  0.00    +0.000 A 
ATOM      8  C   UNL     1      -3.347   0.380   0.878  0.00  0.00    +0.000 A 
BRANCH   3  10
ATOM      9  C   UNL     1      -5.603  -0.496  -1.868  0.00  0.00    +0.000 C 
ATOM     10  O   UNL     1      -5.144  -0.018  -0.607  0.00  0.00    +0.000 OA
ENDBRANCH   3  10
BRANCH   7  11
ATOM     11  O   UNL     1      -1.611   0.802   2.407  0.00  0.00    +0.000 OA
ATOM     12  C   UNL     1      -2.516   1.322   3.348  0.00  0.00    +0.000 C 
ENDBRANCH   7  11
ENDBRANCH   1   5
BRANCH   2  13
ATOM     13  C   UNL     1       1.441  -0.882  -1.335  0.00  0.00    +0.000 A 
ATOM     14  C   UNL     1       2.763  -1.332  -1.583  0.00  0.00    +0.000 A 
ATOM     15  C   UNL     1       3.814  -0.853  -0.860  0.00  0.00    +0.000 A 
ATOM     16  C   UNL     1       3.690   0.079   0.141  0.00  0.00    +0.000 A 
ATOM     17  C   UNL     1       2.394   0.535   0.400  0.00  0.00    +0.000 A 
ATOM     18  C   UNL     1       1.347   0.037  -0.342  0.00  0.00    +0.000 A 
BRANCH  16  19
ATOM     19  O   UNL     1       4.779   0.542   0.854  0.00  0.00    +0.000 OA
ATOM     20  C   UNL     1       6.100   0.100   0.616  0.00  0.00    +0.000 C 
ENDBRANCH  16  19
BRANCH  17  21
ATOM     21  O   UNL     1       2.306   1.471   1.404  0.00  0.00    +0.000 OA
ATOM     22  C   UNL     1       1.212   2.132   1.906  0.00  0.00    +0.000 C 
ENDBRANCH  17  21
ENDBRANCH   2  13
TORSDOF 6
