REMARK  Name = 
REMARK  5 active torsions:
REMARK  status: ('A' for Active; 'I' for Inactive)
REMARK    1  A    between atoms: C_2  and  C_3
REMARK    2  A    between atoms: C_5  and  O_6
REMARK    3  A    between atoms: O_6  and  C_7
REMARK    4  A    between atoms: C_12  and  C_13
REMARK    5  A    between atoms: C_14  and  C_15
REMARK                            x       y       z     vdW  Elec       q    Type
REMARK                         _______ _______ _______ _____ _____    ______ ____
ROOT
ATOM      1  C   UNL     1      -1.288  -1.179   1.353  0.00  0.00    +0.000 A 
ATOM      2  C   UNL     1      -1.131  -2.447   1.938  0.00  0.00    +0.000 A 
ATOM      3  C   UNL     1       0.065  -3.127   1.876  0.00  0.00    +0.000 A 
ATOM      4  O   UNL     1       0.208  -4.390   2.464  0.00  0.00    +0.000 OA
ATOM      5  C   UNL     1       1.148  -2.593   1.242  0.00  0.00    +0.000 A 
ATOM      6  C   UNL     1       1.024  -1.366   0.667  0.00  0.00    +0.000 A 
ATOM      7  C   UNL     1      -0.175  -0.690   0.732  0.00  0.00    +0.000 A 
ENDROOT
BRANCH   6   8
ATOM      8  C   UNL     1       2.138  -0.733  -0.027  0.00  0.00    +0.000 C 
ATOM      9  C   UNL     1       3.304  -1.336  -0.117  0.00  0.00    +0.000 C 
BRANCH   9  10
ATOM     10  C   UNL     1       4.421  -0.674  -0.827  0.00  0.00    +0.000 A 
ATOM     11  C   UNL     1       4.231   0.561  -1.384  0.00  0.00    +0.000 A 
ATOM     12  C   UNL     1       5.294   1.145  -2.036  0.00  0.00    +0.000 A 
ATOM     13  C   UNL     1       6.500   0.509  -2.123  0.00  0.00    +0.000 A 
ATOM     14  O   UNL     1       7.539   1.138  -2.790  0.00  0.00    +0.000 OA
ATOM     15  C   UNL     1       6.713  -0.745  -1.564  0.00  0.00    +0.000 A 
ATOM     16  C   UNL     1       5.637  -1.320  -0.912  0.00  0.00    +0.000 A 
ENDBRANCH   9  10
ENDBRANCH   6   8
BRANCH   1  17
ATOM     17  O   UNL     1      -2.520  -0.574   1.468  0.00  0.00    +0.000 OA
BRANCH  17  20
ATOM     18  C   UNL     1      -3.857   2.520   0.619  0.00  0.00    +0.000 C 
ATOM     19  O   UNL     1      -3.979   1.108   1.197  0.00  0.00    +0.000 OA
ATOM     20  C   UNL     1      -2.506   0.786   0.705  0.00  0.00    +0.000 C 
ATOM     21  C   UNL     1      -3.195   0.039  -0.756  0.00  0.00    +0.000 C 
ATOM     22  O   UNL     1      -1.844  -0.292  -1.292  0.00  0.00    +0.000 OA
ATOM     23  C   UNL     1      -3.138   1.602  -1.524  0.00  0.00    +0.000 C 
ATOM     24  O   UNL     1      -3.783   1.048  -2.771  0.00  0.00    +0.000 OA
ATOM     25  C   UNL     1      -4.660   2.033  -0.844  0.00  0.00    +0.000 C 
ATOM     26  O   UNL     1      -4.585   3.421  -1.409  0.00  0.00    +0.000 OA
BRANCH  18  28
ATOM     27  O   UNL     1      -6.317   2.444   0.902  0.00  0.00    +0.000 OA
ATOM     28  C   UNL     1      -5.243   3.111   1.285  0.00  0.00    +0.000 C 
ENDBRANCH  18  28
ENDBRANCH  17  20
ENDBRANCH   1  17
TORSDOF 5
