REMARK  Name = 
REMARK  7 active torsions:
REMARK  status: ('A' for Active; 'I' for Inactive)
REMARK    1  A    between atoms: C_2  and  O_3
REMARK    2  A    between atoms: O_3  and  C_4
REMARK    3  A    between atoms: C_7  and  C_8
REMARK    4  A    between atoms: C_9  and  C_10
REMARK    5  A    between atoms: C_12  and  O_13
REMARK    6  A    between atoms: C_15  and  O_16
REMARK    7  A    between atoms: C_18  and  O_19
REMARK                            x       y       z     vdW  Elec       q    Type
REMARK                         _______ _______ _______ _____ _____    ______ ____
ROOT
ATOM      1  C   UNL     1      -1.175  -1.394  -0.457  0.00  0.00    +0.000 A 
ATOM      2  C   UNL     1      -2.581  -1.551  -0.418  0.00  0.00    +0.000 A 
ATOM      3  C   UNL     1      -3.403  -0.507  -0.105  0.00  0.00    +0.000 A 
ATOM      4  C   UNL     1      -2.954   0.758   0.193  0.00  0.00    +0.000 A 
ATOM      5  C   UNL     1      -1.569   0.932   0.159  0.00  0.00    +0.000 A 
ATOM      6  C   UNL     1      -0.765  -0.138  -0.159  0.00  0.00    +0.000 A 
ENDROOT
BRANCH   1   8
ATOM      7  C   UNL     1       0.769  -2.733  -0.909  0.00  0.00    +0.000 C 
ATOM      8  C   UNL     1      -0.455  -2.577  -0.800  0.00  0.00    +0.000 C 
BRANCH   7  12
ATOM      9  C   UNL     1       4.010  -0.031  -0.402  0.00  0.00    +0.000 A 
ATOM     10  C   UNL     1       2.692   0.406  -0.216  0.00  0.00    +0.000 A 
ATOM     11  C   UNL     1       1.635  -0.457  -0.377  0.00  0.00    +0.000 A 
ATOM     12  C   UNL     1       1.768  -1.753  -0.715  0.00  0.00    +0.000 A 
ATOM     13  C   UNL     1       3.103  -2.192  -0.902  0.00  0.00    +0.000 A 
ATOM     14  C   UNL     1       4.149  -1.341  -0.744  0.00  0.00    +0.000 A 
BRANCH   9  15
ATOM     15  O   UNL     1       5.061   0.849  -0.236  0.00  0.00    +0.000 OA
BRANCH  15  17
ATOM     16  C   UNL     1       3.963   2.914  -0.875  0.00  0.00    +0.000 C 
ATOM     17  C   UNL     1       4.808   2.186   0.119  0.00  0.00    +0.000 C 
ENDBRANCH  15  17
ENDBRANCH   9  15
ENDBRANCH   7  12
ENDBRANCH   1   8
BRANCH   3  18
ATOM     18  O   UNL     1      -4.790  -0.659  -0.066  0.00  0.00    +0.000 OA
ATOM     19  C   UNL     1      -5.305  -1.941  -0.364  0.00  0.00    +0.000 C 
ENDBRANCH   3  18
BRANCH   4  20
ATOM     20  O   UNL     1      -3.797   1.808   0.509  0.00  0.00    +0.000 OA
ATOM     21  C   UNL     1      -4.282   2.637  -0.544  0.00  0.00    +0.000 C 
ENDBRANCH   4  20
BRANCH   5  22
ATOM     22  O   UNL     1      -1.116   2.204   0.459  0.00  0.00    +0.000 OA
ATOM     23  C   UNL     1       0.234   2.579   0.478  0.00  0.00    +0.000 C 
ENDBRANCH   5  22
TORSDOF 7
