REMARK  Name = 
REMARK  5 active torsions:
REMARK  status: ('A' for Active; 'I' for Inactive)
REMARK    1  A    between atoms: O_2  and  C_3
REMARK    2  A    between atoms: C_6  and  C_7
REMARK    3  A    between atoms: C_8  and  C_9
REMARK    4  A    between atoms: C_11  and  O_12
REMARK    5  A    between atoms: C_16  and  O_17
REMARK                            x       y       z     vdW  Elec       q    Type
REMARK                         _______ _______ _______ _____ _____    ______ ____
ROOT
ATOM      1  C   UNL     1      -1.349   0.432  -0.199  0.00  0.00    +0.000 A 
ATOM      2  C   UNL     1      -2.108   1.329  -0.933  0.00  0.00    +0.000 A 
ATOM      3  C   UNL     1      -3.473   1.300  -0.930  0.00  0.00    +0.000 A 
ATOM      4  C   UNL     1      -4.098   0.336  -0.164  0.00  0.00    +0.000 A 
ATOM      5  C   UNL     1      -3.390  -0.578   0.583  0.00  0.00    +0.000 A 
ATOM      6  C   UNL     1      -2.017  -0.514   0.553  0.00  0.00    +0.000 A 
ATOM      7  O   UNL     1      -4.252  -1.432   1.257  0.00  0.00    +0.000 OA
ATOM      8  C   UNL     1      -5.556  -1.184   0.743  0.00  0.00    +0.000 C 
ATOM      9  O   UNL     1      -5.444   0.059   0.038  0.00  0.00    +0.000 OA
ENDROOT
BRANCH   1  11
ATOM     10  C   UNL     1       0.815  -0.360   0.473  0.00  0.00    +0.000 C 
ATOM     11  C   UNL     1       0.113   0.507  -0.236  0.00  0.00    +0.000 C 
BRANCH  10  15
ATOM     12  C   UNL     1       5.083  -0.211   0.419  0.00  0.00    +0.000 A 
ATOM     13  C   UNL     1       4.405  -1.144   1.160  0.00  0.00    +0.000 A 
ATOM     14  C   UNL     1       3.023  -1.222   1.201  0.00  0.00    +0.000 A 
ATOM     15  C   UNL     1       2.294  -0.316   0.460  0.00  0.00    +0.000 A 
ATOM     16  C   UNL     1       2.952   0.637  -0.297  0.00  0.00    +0.000 A 
ATOM     17  C   UNL     1       4.335   0.685  -0.314  0.00  0.00    +0.000 A 
ATOM     18  O   UNL     1       5.024   1.630  -1.064  0.00  0.00    +0.000 OA
BRANCH  12  20
ATOM     19  C   UNL     1       7.250  -1.056   1.133  0.00  0.00    +0.000 C 
ATOM     20  O   UNL     1       6.482  -0.136   0.381  0.00  0.00    +0.000 OA
ENDBRANCH  12  20
ENDBRANCH  10  15
ENDBRANCH   1  11
BRANCH   3  21
ATOM     21  O   UNL     1      -4.271   2.175  -1.647  0.00  0.00    +0.000 OA
ATOM     22  C   UNL     1      -3.624   3.165  -2.434  0.00  0.00    +0.000 C 
ENDBRANCH   3  21
BRANCH   6  23
ATOM     23  O   UNL     1      -1.295  -1.428   1.300  0.00  0.00    +0.000 OA
ATOM     24  C   UNL     1      -0.899  -2.675   0.745  0.00  0.00    +0.000 C 
ENDBRANCH   6  23
TORSDOF 5
