REMARK  Name = 
REMARK  5 active torsions:
REMARK  status: ('A' for Active; 'I' for Inactive)
REMARK    1  A    between atoms: O_2  and  C_3
REMARK    2  A    between atoms: C_5  and  C_6
REMARK    3  A    between atoms: C_7  and  C_8
REMARK    4  A    between atoms: C_16  and  O_17
REMARK    5  A    between atoms: C_19  and  O_20
REMARK                            x       y       z     vdW  Elec       q    Type
REMARK                         _______ _______ _______ _____ _____    ______ ____
ROOT
ATOM      1  C   UNL     1      -2.812   1.063  -0.172  0.00  0.00    +0.000 A 
ATOM      2  C   UNL     1      -1.804   1.480  -1.003  0.00  0.00    +0.000 A 
ATOM      3  C   UNL     1      -0.490   0.983  -0.852  0.00  0.00    +0.000 A 
ATOM      4  C   UNL     1      -0.358   0.091   0.161  0.00  0.00    +0.000 A 
ATOM      5  C   UNL     1      -1.351  -0.344   1.008  0.00  0.00    +0.000 A 
ATOM      6  C   UNL     1      -2.643   0.160   0.842  0.00  0.00    +0.000 A 
ENDROOT
BRANCH   1   8
ATOM      7  C   UNL     1      -4.390   2.494  -1.343  0.00  0.00    +0.000 C 
ATOM      8  O   UNL     1      -4.112   1.562  -0.331  0.00  0.00    +0.000 OA
ENDBRANCH   1   8
BRANCH   3   9
ATOM      9  C   UNL     1       0.469   1.493  -1.777  0.00  0.00    +0.000 C 
ATOM     10  C   UNL     1       1.666   1.200  -1.829  0.00  0.00    +0.000 C 
BRANCH  10  11
ATOM     11  C   UNL     1       2.385   0.303  -1.005  0.00  0.00    +0.000 A 
ATOM     12  C   UNL     1       2.055  -0.487   0.042  0.00  0.00    +0.000 A 
ATOM     13  C   UNL     1       2.904  -1.318   0.744  0.00  0.00    +0.000 A 
ATOM     14  C   UNL     1       4.241  -1.365   0.354  0.00  0.00    +0.000 A 
ATOM     15  O   UNL     1       5.149  -2.167   1.002  0.00  0.00    +0.000 OA
ATOM     16  C   UNL     1       4.619  -0.589  -0.692  0.00  0.00    +0.000 A 
ATOM     17  C   UNL     1       3.757   0.214  -1.357  0.00  0.00    +0.000 A 
ENDBRANCH  10  11
ENDBRANCH   3   9
BRANCH   5  18
ATOM     18  O   UNL     1      -1.162  -1.259   2.030  0.00  0.00    +0.000 OA
ATOM     19  C   UNL     1       0.019  -1.891   2.385  0.00  0.00    +0.000 C 
ENDBRANCH   5  18
BRANCH   6  20
ATOM     20  O   UNL     1      -3.675  -0.247   1.668  0.00  0.00    +0.000 OA
ATOM     21  C   UNL     1      -4.466  -1.373   1.325  0.00  0.00    +0.000 C 
ENDBRANCH   6  20
TORSDOF 5
