REMARK  Name = 
REMARK  2 active torsions:
REMARK  status: ('A' for Active; 'I' for Inactive)
REMARK    1  A    between atoms: C_7  and  C_8
REMARK    2  A    between atoms: C_9  and  C_10
REMARK                            x       y       z     vdW  Elec       q    Type
REMARK                         _______ _______ _______ _____ _____    ______ ____
ROOT
ATOM      1  C   UNL     1      -0.293   0.610  -0.052  0.00  0.00    +0.000 C 
ATOM      2  C   UNL     1       0.433  -0.471  -0.184  0.00  0.00    +0.000 C 
ENDROOT
BRANCH   1   9
ATOM      3  O   UNL     1      -4.671  -1.538  -0.640  0.00  0.00    +0.000 OA
ATOM      4  C   UNL     1      -3.848  -0.419  -0.415  0.00  0.00    +0.000 A 
ATOM      5  C   UNL     1      -4.505   0.799  -0.257  0.00  0.00    +0.000 A 
ATOM      6  C   UNL     1      -3.769   1.947  -0.032  0.00  0.00    +0.000 A 
ATOM      7  O   UNL     1      -4.455   3.136   0.119  0.00  0.00    +0.000 OA
ATOM      8  C   UNL     1      -2.402   1.826   0.025  0.00  0.00    +0.000 A 
ATOM      9  C   UNL     1      -1.747   0.628  -0.130  0.00  0.00    +0.000 A 
ATOM     10  C   UNL     1      -2.491  -0.504  -0.353  0.00  0.00    +0.000 A 
ENDBRANCH   1   9
BRANCH   2  11
ATOM     11  C   UNL     1       1.893  -0.472  -0.103  0.00  0.00    +0.000 A 
ATOM     12  C   UNL     1       2.596   0.693   0.123  0.00  0.00    +0.000 A 
ATOM     13  C   UNL     1       3.971   0.733   0.206  0.00  0.00    +0.000 A 
ATOM     14  C   UNL     1       4.660  -0.437   0.057  0.00  0.00    +0.000 A 
ATOM     15  O   UNL     1       6.054  -0.400   0.141  0.00  0.00    +0.000 OA
ATOM     16  C   UNL     1       4.000  -1.625  -0.169  0.00  0.00    +0.000 A 
ATOM     17  C   UNL     1       2.604  -1.644  -0.250  0.00  0.00    +0.000 A 
ATOM     18  O   UNL     1       1.968  -2.860  -0.480  0.00  0.00    +0.000 OA
ENDBRANCH   2  11
TORSDOF 2
