REMARK  Name = 
REMARK  2 active torsions:
REMARK  status: ('A' for Active; 'I' for Inactive)
REMARK    1  A    between atoms: C_5  and  C_6
REMARK    2  A    between atoms: C_7  and  C_8
REMARK                            x       y       z     vdW  Elec       q    Type
REMARK                         _______ _______ _______ _____ _____    ______ ____
ROOT
ATOM      1  C   UNL     1       0.977   0.095  -0.298  0.00  0.00    +0.000 C 
ATOM      2  C   UNL     1       0.054  -0.074   0.603  0.00  0.00    +0.000 C 
ENDROOT
BRANCH   2   3
ATOM      3  C   UNL     1      -1.376  -0.067   0.342  0.00  0.00    +0.000 A 
ATOM      4  C   UNL     1      -2.243  -0.260   1.398  0.00  0.00    +0.000 A 
ATOM      5  C   UNL     1      -3.612  -0.259   1.183  0.00  0.00    +0.000 A 
ATOM      6  O   UNL     1      -4.498  -0.451   2.234  0.00  0.00    +0.000 OA
ATOM      7  C   UNL     1      -4.164  -0.069  -0.072  0.00  0.00    +0.000 A 
ATOM      8  O   UNL     1      -5.536  -0.067  -0.296  0.00  0.00    +0.000 OA
ATOM      9  C   UNL     1      -3.282   0.122  -1.114  0.00  0.00    +0.000 A 
ATOM     10  O   UNL     1      -3.784   0.316  -2.388  0.00  0.00    +0.000 OA
ATOM     11  C   UNL     1      -1.916   0.124  -0.919  0.00  0.00    +0.000 A 
ENDBRANCH   2   3
BRANCH   1  16
ATOM     12  O   UNL     1       6.574   0.083   0.635  0.00  0.00    +0.000 OA
ATOM     13  C   UNL     1       5.194   0.082   0.426  0.00  0.00    +0.000 A 
ATOM     14  C   UNL     1       4.296  -0.107   1.456  0.00  0.00    +0.000 A 
ATOM     15  C   UNL     1       2.934  -0.105   1.233  0.00  0.00    +0.000 A 
ATOM     16  C   UNL     1       2.407   0.086  -0.026  0.00  0.00    +0.000 A 
ATOM     17  C   UNL     1       3.306   0.276  -1.056  0.00  0.00    +0.000 A 
ATOM     18  C   UNL     1       4.670   0.274  -0.834  0.00  0.00    +0.000 A 
ENDBRANCH   1  16
TORSDOF 2
