REMARK  Name = 
REMARK  5 active torsions:
REMARK  status: ('A' for Active; 'I' for Inactive)
REMARK    1  A    between atoms: O_2  and  C_3
REMARK    2  A    between atoms: C_6  and  C_7
REMARK    3  A    between atoms: C_8  and  C_9
REMARK    4  A    between atoms: C_11  and  O_12
REMARK    5  A    between atoms: C_15  and  O_16
REMARK                            x       y       z     vdW  Elec       q    Type
REMARK                         _______ _______ _______ _____ _____    ______ ____
ROOT
ATOM      1  C   UNL     1       0.702   0.446  -0.019  0.00  0.00    +0.000 C 
ATOM      2  C   UNL     1      -0.254  -0.433   0.101  0.00  0.00    +0.000 C 
ENDROOT
BRANCH   1   6
ATOM      3  C   UNL     1       4.864  -0.196   0.250  0.00  0.00    +0.000 A 
ATOM      4  C   UNL     1       4.348   1.053   0.009  0.00  0.00    +0.000 A 
ATOM      5  C   UNL     1       2.997   1.211  -0.070  0.00  0.00    +0.000 A 
ATOM      6  C   UNL     1       2.120   0.160   0.084  0.00  0.00    +0.000 A 
ATOM      7  C   UNL     1       2.635  -1.093   0.326  0.00  0.00    +0.000 A 
ATOM      8  C   UNL     1       4.016  -1.250   0.406  0.00  0.00    +0.000 A 
BRANCH   3  10
ATOM      9  C   UNL     1       6.861  -1.570   0.569  0.00  0.00    +0.000 C 
ATOM     10  O   UNL     1       6.255  -0.332   0.326  0.00  0.00    +0.000 OA
ENDBRANCH   3  10
ENDBRANCH   1   6
BRANCH   2  11
ATOM     11  C   UNL     1      -1.683  -0.085  -0.014  0.00  0.00    +0.000 A 
ATOM     12  C   UNL     1      -2.583  -1.115   0.135  0.00  0.00    +0.000 A 
ATOM     13  C   UNL     1      -3.940  -0.901   0.047  0.00  0.00    +0.000 A 
ATOM     14  C   UNL     1      -4.415   0.369  -0.197  0.00  0.00    +0.000 A 
ATOM     15  C   UNL     1      -3.492   1.380  -0.342  0.00  0.00    +0.000 A 
ATOM     16  C   UNL     1      -2.126   1.178  -0.255  0.00  0.00    +0.000 A 
BRANCH  13  17
ATOM     17  O   UNL     1      -4.849  -1.962   0.201  0.00  0.00    +0.000 OA
ATOM     18  C   UNL     1      -4.397  -3.264   0.450  0.00  0.00    +0.000 C 
ENDBRANCH  13  17
BRANCH  15  19
ATOM     19  O   UNL     1      -3.978   2.654  -0.587  0.00  0.00    +0.000 OA
ATOM     20  C   UNL     1      -3.082   3.748  -0.748  0.00  0.00    +0.000 C 
ENDBRANCH  15  19
ENDBRANCH   2  11
TORSDOF 5
