REMARK  Name = 
REMARK  4 active torsions:
REMARK  status: ('A' for Active; 'I' for Inactive)
REMARK    1  A    between atoms: S_2  and  O_5
REMARK    2  A    between atoms: O_5  and  C_6
REMARK    3  A    between atoms: C_11  and  C_12
REMARK    4  A    between atoms: C_13  and  C_14
REMARK                            x       y       z     vdW  Elec       q    Type
REMARK                         _______ _______ _______ _____ _____    ______ ____
ROOT
ATOM      1  C   UNL     1      -2.681   0.470  -1.258  0.00  0.00    +0.000 A 
ATOM      2  C   UNL     1      -2.676  -0.629  -2.106  0.00  0.00    +0.000 A 
ATOM      3  C   UNL     1      -1.520  -1.370  -2.248  0.00  0.00    +0.000 A 
ATOM      4  O   UNL     1      -1.472  -2.466  -3.077  0.00  0.00    +0.000 OA
ATOM      5  C   UNL     1      -0.375  -1.013  -1.544  0.00  0.00    +0.000 A 
ATOM      6  C   UNL     1      -0.357   0.077  -0.696  0.00  0.00    +0.000 A 
ATOM      7  C   UNL     1      -1.522   0.804  -0.568  0.00  0.00    +0.000 A 
ENDROOT
BRANCH   6   8
ATOM      8  C   UNL     1       0.860   0.455   0.051  0.00  0.00    +0.000 C 
ATOM      9  C   UNL     1       1.978  -0.200  -0.038  0.00  0.00    +0.000 C 
BRANCH   9  10
ATOM     10  C   UNL     1       3.172   0.189   0.707  0.00  0.00    +0.000 A 
ATOM     11  C   UNL     1       3.199   1.277   1.558  0.00  0.00    +0.000 A 
ATOM     12  C   UNL     1       4.338   1.634   2.258  0.00  0.00    +0.000 A 
ATOM     13  C   UNL     1       5.472   0.867   2.089  0.00  0.00    +0.000 A 
ATOM     14  O   UNL     1       6.620   1.231   2.798  0.00  0.00    +0.000 OA
ATOM     15  C   UNL     1       5.502  -0.236   1.247  0.00  0.00    +0.000 A 
ATOM     16  C   UNL     1       4.335  -0.543   0.575  0.00  0.00    +0.000 A 
ENDBRANCH   9  10
ENDBRANCH   6   8
BRANCH   1  17
ATOM     17  O   UNL     1      -3.850   1.208  -1.124  0.00  0.00    +0.000 OA
BRANCH  17  19
ATOM     18  O   UNL     1      -4.244   0.260   1.267  0.00  0.00    +0.000 OA
ATOM     19  S   UNL     1      -4.980   0.793   0.078  0.00  0.00    +0.000 S 
ATOM     20  O   UNL     1      -5.725   2.037   0.497  0.00  0.00    +0.000 OA
ATOM     21  O   UNL     1      -6.074  -0.351  -0.464  0.00  0.00    +0.000 OA
ENDBRANCH  17  19
ENDBRANCH   1  17
TORSDOF 4
