REMARK  Name = 
REMARK  5 active torsions:
REMARK  status: ('A' for Active; 'I' for Inactive)
REMARK    1  A    between atoms: O_2  and  C_3
REMARK    2  A    between atoms: C_6  and  C_7
REMARK    3  A    between atoms: C_8  and  C_9
REMARK    4  A    between atoms: C_11  and  O_12
REMARK    5  A    between atoms: C_15  and  O_16
REMARK                            x       y       z     vdW  Elec       q    Type
REMARK                         _______ _______ _______ _____ _____    ______ ____
ROOT
ATOM      1  C   UNL     1       0.540   0.619  -2.259  0.00  0.00    +0.000 C 
ATOM      2  C   UNL     1      -0.605   0.974  -2.033  0.00  0.00    +0.000 C 
ENDROOT
BRANCH   1   6
ATOM      3  C   UNL     1       3.527  -1.387   0.044  0.00  0.00    +0.000 A 
ATOM      4  C   UNL     1       3.666  -0.956  -1.255  0.00  0.00    +0.000 A 
ATOM      5  C   UNL     1       2.688  -0.318  -1.958  0.00  0.00    +0.000 A 
ATOM      6  C   UNL     1       1.425  -0.052  -1.372  0.00  0.00    +0.000 A 
ATOM      7  C   UNL     1       1.312  -0.484  -0.098  0.00  0.00    +0.000 A 
ATOM      8  C   UNL     1       2.299  -1.131   0.619  0.00  0.00    +0.000 A 
BRANCH   3  10
ATOM      9  C   UNL     1       5.791  -2.297   0.153  0.00  0.00    +0.000 C 
ATOM     10  O   UNL     1       4.533  -2.035   0.746  0.00  0.00    +0.000 OA
ENDBRANCH   3  10
ENDBRANCH   1   6
BRANCH   2  11
ATOM     11  C   UNL     1      -1.374   0.829  -0.853  0.00  0.00    +0.000 A 
ATOM     12  C   UNL     1      -1.016   0.255   0.318  0.00  0.00    +0.000 A 
ATOM     13  C   UNL     1      -1.802   0.136   1.445  0.00  0.00    +0.000 A 
ATOM     14  C   UNL     1      -3.097   0.646   1.408  0.00  0.00    +0.000 A 
ATOM     15  C   UNL     1      -3.493   1.233   0.242  0.00  0.00    +0.000 A 
ATOM     16  C   UNL     1      -2.693   1.337  -0.858  0.00  0.00    +0.000 A 
BRANCH  13  17
ATOM     17  O   UNL     1      -1.419  -0.453   2.629  0.00  0.00    +0.000 OA
ATOM     18  C   UNL     1      -0.182  -1.016   2.865  0.00  0.00    +0.000 C 
ENDBRANCH  13  17
BRANCH  15  19
ATOM     19  O   UNL     1      -4.798   1.738   0.232  0.00  0.00    +0.000 OA
ATOM     20  C   UNL     1      -5.302   2.362  -0.921  0.00  0.00    +0.000 C 
ENDBRANCH  15  19
ENDBRANCH   2  11
TORSDOF 5
