MODEL 1
REMARK VINA RESULT:      -6.9      0.000      0.000
REMARK  Name = 
REMARK  2 active torsions:
REMARK  status: ('A' for Active; 'I' for Inactive)
REMARK    1  A    between atoms: C_7  and  C_8
REMARK    2  A    between atoms: C_9  and  C_10
REMARK                            x       y       z     vdW  Elec       q    Type
REMARK                         _______ _______ _______ _____ _____    ______ ____
ROOT
ATOM      1  C   UNL     1      30.748  45.916  62.106  0.00  0.00    +0.000 C 
ATOM      2  C   UNL     1      29.851  45.551  62.972  0.00  0.00    +0.000 C 
ENDROOT
BRANCH   1   9
ATOM      3  O   UNL     1      33.115  42.462  59.710  0.00  0.00    +0.000 OA
ATOM      4  C   UNL     1      33.135  43.490  60.643  0.00  0.00    +0.000 A 
ATOM      5  C   UNL     1      34.288  43.850  61.317  0.00  0.00    +0.000 A 
ATOM      6  C   UNL     1      34.309  44.872  62.245  0.00  0.00    +0.000 A 
ATOM      7  O   UNL     1      35.501  45.173  62.879  0.00  0.00    +0.000 OA
ATOM      8  C   UNL     1      33.123  45.536  62.485  0.00  0.00    +0.000 A 
ATOM      9  C   UNL     1      31.966  45.188  61.819  0.00  0.00    +0.000 A 
ATOM     10  C   UNL     1      31.981  44.171  60.907  0.00  0.00    +0.000 A 
ENDBRANCH   1   9
BRANCH   2  11
ATOM     11  C   UNL     1      28.650  46.340  63.203  0.00  0.00    +0.000 A 
ATOM     12  C   UNL     1      27.899  46.079  64.326  0.00  0.00    +0.000 A 
ATOM     13  C   UNL     1      26.733  46.790  64.621  0.00  0.00    +0.000 A 
ATOM     14  C   UNL     1      26.336  47.774  63.759  0.00  0.00    +0.000 A 
ATOM     15  O   UNL     1      25.183  48.484  64.043  0.00  0.00    +0.000 OA
ATOM     16  C   UNL     1      27.064  48.060  62.628  0.00  0.00    +0.000 A 
ATOM     17  O   UNL     1      26.626  49.068  61.781  0.00  0.00    +0.000 OA
ATOM     18  C   UNL     1      28.226  47.330  62.362  0.00  0.00    +0.000 A 
ENDBRANCH   2  11
TORSDOF 2
ENDMDL
MODEL 2
REMARK VINA RESULT:      -6.9      0.934      7.505
REMARK  Name = 
REMARK  2 active torsions:
REMARK  status: ('A' for Active; 'I' for Inactive)
REMARK    1  A    between atoms: C_7  and  C_8
REMARK    2  A    between atoms: C_9  and  C_10
REMARK                            x       y       z     vdW  Elec       q    Type
REMARK                         _______ _______ _______ _____ _____    ______ ____
ROOT
ATOM      1  C   UNL     1      29.801  45.875  62.611  0.00  0.00    +0.000 C 
ATOM      2  C   UNL     1      30.916  46.363  62.157  0.00  0.00    +0.000 C 
ENDROOT
BRANCH   1   9
ATOM      3  O   UNL     1      25.838  46.822  65.194  0.00  0.00    +0.000 OA
ATOM      4  C   UNL     1      26.640  47.109  64.098  0.00  0.00    +0.000 A 
ATOM      5  C   UNL     1      26.324  48.110  63.196  0.00  0.00    +0.000 A 
ATOM      6  C   UNL     1      27.122  48.396  62.106  0.00  0.00    +0.000 A 
ATOM      7  O   UNL     1      26.740  49.412  61.249  0.00  0.00    +0.000 OA
ATOM      8  C   UNL     1      28.264  47.641  61.939  0.00  0.00    +0.000 A 
ATOM      9  C   UNL     1      28.592  46.639  62.831  0.00  0.00    +0.000 A 
ATOM     10  C   UNL     1      27.779  46.383  63.899  0.00  0.00    +0.000 A 
ENDBRANCH   1   9
BRANCH   2  11
ATOM     11  C   UNL     1      32.091  45.527  61.964  0.00  0.00    +0.000 A 
ATOM     12  C   UNL     1      31.968  44.390  61.196  0.00  0.00    +0.000 A 
ATOM     13  C   UNL     1      33.046  43.534  60.961  0.00  0.00    +0.000 A 
ATOM     14  C   UNL     1      34.257  43.844  61.517  0.00  0.00    +0.000 A 
ATOM     15  O   UNL     1      35.330  43.002  61.290  0.00  0.00    +0.000 OA
ATOM     16  C   UNL     1      34.412  44.971  62.289  0.00  0.00    +0.000 A 
ATOM     17  O   UNL     1      35.658  45.250  62.833  0.00  0.00    +0.000 OA
ATOM     18  C   UNL     1      33.313  45.808  62.504  0.00  0.00    +0.000 A 
ENDBRANCH   2  11
TORSDOF 2
ENDMDL
MODEL 3
REMARK VINA RESULT:      -6.8      0.095      1.963
REMARK  Name = 
REMARK  2 active torsions:
REMARK  status: ('A' for Active; 'I' for Inactive)
REMARK    1  A    between atoms: C_7  and  C_8
REMARK    2  A    between atoms: C_9  and  C_10
REMARK                            x       y       z     vdW  Elec       q    Type
REMARK                         _______ _______ _______ _____ _____    ______ ____
ROOT
ATOM      1  C   UNL     1      30.708  45.887  62.088  0.00  0.00    +0.000 C 
ATOM      2  C   UNL     1      29.826  45.550  62.980  0.00  0.00    +0.000 C 
ENDROOT
BRANCH   1   9
ATOM      3  O   UNL     1      35.413  45.099  62.809  0.00  0.00    +0.000 OA
ATOM      4  C   UNL     1      34.236  44.759  62.155  0.00  0.00    +0.000 A 
ATOM      5  C   UNL     1      34.178  43.730  61.232  0.00  0.00    +0.000 A 
ATOM      6  C   UNL     1      33.008  43.391  60.582  0.00  0.00    +0.000 A 
ATOM      7  O   UNL     1      33.029  42.350  59.671  0.00  0.00    +0.000 OA
ATOM      8  C   UNL     1      31.878  44.122  60.885  0.00  0.00    +0.000 A 
ATOM      9  C   UNL     1      31.921  45.151  61.804  0.00  0.00    +0.000 A 
ATOM     10  C   UNL     1      33.097  45.459  62.429  0.00  0.00    +0.000 A 
ENDBRANCH   1   9
BRANCH   2  11
ATOM     11  C   UNL     1      28.628  46.346  63.205  0.00  0.00    +0.000 A 
ATOM     12  C   UNL     1      27.876  46.095  64.331  0.00  0.00    +0.000 A 
ATOM     13  C   UNL     1      26.713  46.813  64.621  0.00  0.00    +0.000 A 
ATOM     14  C   UNL     1      26.321  47.793  63.751  0.00  0.00    +0.000 A 
ATOM     15  O   UNL     1      25.170  48.509  64.030  0.00  0.00    +0.000 OA
ATOM     16  C   UNL     1      27.050  48.067  62.619  0.00  0.00    +0.000 A 
ATOM     17  O   UNL     1      26.616  49.071  61.764  0.00  0.00    +0.000 OA
ATOM     18  C   UNL     1      28.209  47.331  62.358  0.00  0.00    +0.000 A 
ENDBRANCH   2  11
TORSDOF 2
ENDMDL
MODEL 4
REMARK VINA RESULT:      -6.8      0.906      7.477
REMARK  Name = 
REMARK  2 active torsions:
REMARK  status: ('A' for Active; 'I' for Inactive)
REMARK    1  A    between atoms: C_7  and  C_8
REMARK    2  A    between atoms: C_9  and  C_10
REMARK                            x       y       z     vdW  Elec       q    Type
REMARK                         _______ _______ _______ _____ _____    ______ ____
ROOT
ATOM      1  C   UNL     1      29.788  45.843  62.458  0.00  0.00    +0.000 C 
ATOM      2  C   UNL     1      30.961  46.335  62.191  0.00  0.00    +0.000 C 
ENDROOT
BRANCH   1   9
ATOM      3  O   UNL     1      26.752  49.395  61.257  0.00  0.00    +0.000 OA
ATOM      4  C   UNL     1      27.104  48.375  62.131  0.00  0.00    +0.000 A 
ATOM      5  C   UNL     1      26.354  48.078  63.256  0.00  0.00    +0.000 A 
ATOM      6  C   UNL     1      26.703  47.064  64.125  0.00  0.00    +0.000 A 
ATOM      7  O   UNL     1      25.902  46.826  65.228  0.00  0.00    +0.000 OA
ATOM      8  C   UNL     1      27.843  46.343  63.835  0.00  0.00    +0.000 A 
ATOM      9  C   UNL     1      28.601  46.629  62.718  0.00  0.00    +0.000 A 
ATOM     10  C   UNL     1      28.226  47.640  61.878  0.00  0.00    +0.000 A 
ENDBRANCH   1   9
BRANCH   2  11
ATOM     11  C   UNL     1      32.108  45.475  61.941  0.00  0.00    +0.000 A 
ATOM     12  C   UNL     1      31.952  44.404  61.090  0.00  0.00    +0.000 A 
ATOM     13  C   UNL     1      33.002  43.531  60.797  0.00  0.00    +0.000 A 
ATOM     14  C   UNL     1      34.219  43.758  61.380  0.00  0.00    +0.000 A 
ATOM     15  O   UNL     1      35.265  42.898  61.095  0.00  0.00    +0.000 OA
ATOM     16  C   UNL     1      34.407  44.819  62.234  0.00  0.00    +0.000 A 
ATOM     17  O   UNL     1      35.658  45.013  62.802  0.00  0.00    +0.000 OA
ATOM     18  C   UNL     1      33.335  45.674  62.506  0.00  0.00    +0.000 A 
ENDBRANCH   2  11
TORSDOF 2
ENDMDL
MODEL 5
REMARK VINA RESULT:      -6.5     12.806     14.279
REMARK  Name = 
REMARK  2 active torsions:
REMARK  status: ('A' for Active; 'I' for Inactive)
REMARK    1  A    between atoms: C_7  and  C_8
REMARK    2  A    between atoms: C_9  and  C_10
REMARK                            x       y       z     vdW  Elec       q    Type
REMARK                         _______ _______ _______ _____ _____    ______ ____
ROOT
ATOM      1  C   UNL     1      36.059  56.840  57.039  0.00  0.00    +0.000 C 
ATOM      2  C   UNL     1      35.416  56.736  58.163  0.00  0.00    +0.000 C 
ENDROOT
BRANCH   1   9
ATOM      3  O   UNL     1      36.998  58.837  52.750  0.00  0.00    +0.000 OA
ATOM      4  C   UNL     1      36.158  58.719  53.849  0.00  0.00    +0.000 A 
ATOM      5  C   UNL     1      34.977  59.434  53.954  0.00  0.00    +0.000 A 
ATOM      6  C   UNL     1      34.142  59.317  55.047  0.00  0.00    +0.000 A 
ATOM      7  O   UNL     1      32.978  60.064  55.079  0.00  0.00    +0.000 OA
ATOM      8  C   UNL     1      34.526  58.452  56.050  0.00  0.00    +0.000 A 
ATOM      9  C   UNL     1      35.701  57.734  55.960  0.00  0.00    +0.000 A 
ATOM     10  C   UNL     1      36.504  57.874  54.863  0.00  0.00    +0.000 A 
ENDBRANCH   1   9
BRANCH   2  11
ATOM     11  C   UNL     1      35.841  55.811  59.203  0.00  0.00    +0.000 A 
ATOM     12  C   UNL     1      37.156  55.842  59.612  0.00  0.00    +0.000 A 
ATOM     13  C   UNL     1      37.645  54.988  60.603  0.00  0.00    +0.000 A 
ATOM     14  C   UNL     1      36.781  54.097  61.177  0.00  0.00    +0.000 A 
ATOM     15  O   UNL     1      37.256  53.247  62.160  0.00  0.00    +0.000 OA
ATOM     16  C   UNL     1      35.463  54.040  60.791  0.00  0.00    +0.000 A 
ATOM     17  O   UNL     1      34.620  53.121  61.400  0.00  0.00    +0.000 OA
ATOM     18  C   UNL     1      35.005  54.910  59.796  0.00  0.00    +0.000 A 
ENDBRANCH   2  11
TORSDOF 2
ENDMDL
MODEL 6
REMARK VINA RESULT:      -6.5     12.775     14.268
REMARK  Name = 
REMARK  2 active torsions:
REMARK  status: ('A' for Active; 'I' for Inactive)
REMARK    1  A    between atoms: C_7  and  C_8
REMARK    2  A    between atoms: C_9  and  C_10
REMARK                            x       y       z     vdW  Elec       q    Type
REMARK                         _______ _______ _______ _____ _____    ______ ____
ROOT
ATOM      1  C   UNL     1      36.050  56.867  57.113  0.00  0.00    +0.000 C 
ATOM      2  C   UNL     1      35.368  56.681  58.203  0.00  0.00    +0.000 C 
ENDROOT
BRANCH   1   9
ATOM      3  O   UNL     1      32.962  60.020  55.165  0.00  0.00    +0.000 OA
ATOM      4  C   UNL     1      34.149  59.305  55.073  0.00  0.00    +0.000 A 
ATOM      5  C   UNL     1      34.987  59.408  53.977  0.00  0.00    +0.000 A 
ATOM      6  C   UNL     1      36.168  58.697  53.885  0.00  0.00    +0.000 A 
ATOM      7  O   UNL     1      36.953  58.853  52.758  0.00  0.00    +0.000 OA
ATOM      8  C   UNL     1      36.492  57.866  54.937  0.00  0.00    +0.000 A 
ATOM      9  C   UNL     1      35.665  57.753  56.036  0.00  0.00    +0.000 A 
ATOM     10  C   UNL     1      34.504  58.471  56.094  0.00  0.00    +0.000 A 
ENDBRANCH   1   9
BRANCH   2  11
ATOM     11  C   UNL     1      35.825  55.770  59.242  0.00  0.00    +0.000 A 
ATOM     12  C   UNL     1      37.143  55.831  59.635  0.00  0.00    +0.000 A 
ATOM     13  C   UNL     1      37.662  54.993  60.625  0.00  0.00    +0.000 A 
ATOM     14  C   UNL     1      36.823  54.087  61.215  0.00  0.00    +0.000 A 
ATOM     15  O   UNL     1      37.328  53.253  62.196  0.00  0.00    +0.000 OA
ATOM     16  C   UNL     1      35.502  54.002  60.845  0.00  0.00    +0.000 A 
ATOM     17  O   UNL     1      34.686  53.070  61.471  0.00  0.00    +0.000 OA
ATOM     18  C   UNL     1      35.014  54.856  59.851  0.00  0.00    +0.000 A 
ENDBRANCH   2  11
TORSDOF 2
ENDMDL
MODEL 7
REMARK VINA RESULT:      -6.4      1.471      7.534
REMARK  Name = 
REMARK  2 active torsions:
REMARK  status: ('A' for Active; 'I' for Inactive)
REMARK    1  A    between atoms: C_7  and  C_8
REMARK    2  A    between atoms: C_9  and  C_10
REMARK                            x       y       z     vdW  Elec       q    Type
REMARK                         _______ _______ _______ _____ _____    ______ ____
ROOT
ATOM      1  C   UNL     1      29.096  45.347  62.372  0.00  0.00    +0.000 C 
ATOM      2  C   UNL     1      30.373  45.547  62.246  0.00  0.00    +0.000 C 
ENDROOT
BRANCH   1   9
ATOM      3  O   UNL     1      25.791  47.267  65.316  0.00  0.00    +0.000 OA
ATOM      4  C   UNL     1      26.496  47.323  64.121  0.00  0.00    +0.000 A 
ATOM      5  C   UNL     1      26.301  48.335  63.197  0.00  0.00    +0.000 A 
ATOM      6  C   UNL     1      27.002  48.391  62.009  0.00  0.00    +0.000 A 
ATOM      7  O   UNL     1      26.752  49.435  61.137  0.00  0.00    +0.000 OA
ATOM      8  C   UNL     1      27.919  47.390  61.765  0.00  0.00    +0.000 A 
ATOM      9  C   UNL     1      28.123  46.374  62.676  0.00  0.00    +0.000 A 
ATOM     10  C   UNL     1      27.412  46.350  63.843  0.00  0.00    +0.000 A 
ENDBRANCH   1   9
BRANCH   2  11
ATOM     11  C   UNL     1      31.289  44.458  61.938  0.00  0.00    +0.000 A 
ATOM     12  C   UNL     1      32.515  44.766  61.392  0.00  0.00    +0.000 A 
ATOM     13  C   UNL     1      33.450  43.781  61.068  0.00  0.00    +0.000 A 
ATOM     14  C   UNL     1      33.127  42.474  61.305  0.00  0.00    +0.000 A 
ATOM     15  O   UNL     1      34.047  41.491  60.986  0.00  0.00    +0.000 OA
ATOM     16  C   UNL     1      31.911  42.134  61.848  0.00  0.00    +0.000 A 
ATOM     17  O   UNL     1      31.623  40.794  62.073  0.00  0.00    +0.000 OA
ATOM     18  C   UNL     1      30.997  43.144  62.162  0.00  0.00    +0.000 A 
ENDBRANCH   2  11
TORSDOF 2
ENDMDL
MODEL 8
REMARK VINA RESULT:      -6.4     12.884     14.002
REMARK  Name = 
REMARK  2 active torsions:
REMARK  status: ('A' for Active; 'I' for Inactive)
REMARK    1  A    between atoms: C_7  and  C_8
REMARK    2  A    between atoms: C_9  and  C_10
REMARK                            x       y       z     vdW  Elec       q    Type
REMARK                         _______ _______ _______ _____ _____    ______ ____
ROOT
ATOM      1  C   UNL     1      36.046  56.280  57.938  0.00  0.00    +0.000 C 
ATOM      2  C   UNL     1      36.438  56.328  56.700  0.00  0.00    +0.000 C 
ENDROOT
BRANCH   1   9
ATOM      3  O   UNL     1      39.146  53.125  59.864  0.00  0.00    +0.000 OA
ATOM      4  C   UNL     1      37.861  53.649  59.809  0.00  0.00    +0.000 A 
ATOM      5  C   UNL     1      36.838  53.174  60.611  0.00  0.00    +0.000 A 
ATOM      6  C   UNL     1      35.560  53.695  60.557  0.00  0.00    +0.000 A 
ATOM      7  O   UNL     1      34.590  53.168  61.391  0.00  0.00    +0.000 OA
ATOM      8  C   UNL     1      35.329  54.720  59.664  0.00  0.00    +0.000 A 
ATOM      9  C   UNL     1      36.340  55.203  58.858  0.00  0.00    +0.000 A 
ATOM     10  C   UNL     1      37.593  54.665  58.938  0.00  0.00    +0.000 A 
ENDBRANCH   1   9
BRANCH   2  11
ATOM     11  C   UNL     1      36.100  57.449  55.836  0.00  0.00    +0.000 A 
ATOM     12  C   UNL     1      35.002  58.216  56.156  0.00  0.00    +0.000 A 
ATOM     13  C   UNL     1      34.610  59.310  55.380  0.00  0.00    +0.000 A 
ATOM     14  C   UNL     1      35.348  59.618  54.270  0.00  0.00    +0.000 A 
ATOM     15  O   UNL     1      34.967  60.699  53.495  0.00  0.00    +0.000 OA
ATOM     16  C   UNL     1      36.449  58.871  53.924  0.00  0.00    +0.000 A 
ATOM     17  O   UNL     1      37.170  59.219  52.790  0.00  0.00    +0.000 OA
ATOM     18  C   UNL     1      36.815  57.783  54.722  0.00  0.00    +0.000 A 
ENDBRANCH   2  11
TORSDOF 2
ENDMDL
MODEL 9
REMARK VINA RESULT:      -6.4     12.913     13.996
REMARK  Name = 
REMARK  2 active torsions:
REMARK  status: ('A' for Active; 'I' for Inactive)
REMARK    1  A    between atoms: C_7  and  C_8
REMARK    2  A    between atoms: C_9  and  C_10
REMARK                            x       y       z     vdW  Elec       q    Type
REMARK                         _______ _______ _______ _____ _____    ______ ____
ROOT
ATOM      1  C   UNL     1      36.055  56.305  57.925  0.00  0.00    +0.000 C 
ATOM      2  C   UNL     1      36.408  56.326  56.674  0.00  0.00    +0.000 C 
ENDROOT
BRANCH   1   9
ATOM      3  O   UNL     1      34.619  53.243  61.364  0.00  0.00    +0.000 OA
ATOM      4  C   UNL     1      35.630  53.714  60.537  0.00  0.00    +0.000 A 
ATOM      5  C   UNL     1      36.907  53.183  60.560  0.00  0.00    +0.000 A 
ATOM      6  C   UNL     1      37.913  53.651  59.738  0.00  0.00    +0.000 A 
ATOM      7  O   UNL     1      39.165  53.068  59.818  0.00  0.00    +0.000 OA
ATOM      8  C   UNL     1      37.601  54.684  58.878  0.00  0.00    +0.000 A 
ATOM      9  C   UNL     1      36.332  55.223  58.845  0.00  0.00    +0.000 A 
ATOM     10  C   UNL     1      35.360  54.735  59.673  0.00  0.00    +0.000 A 
ENDBRANCH   1   9
BRANCH   2  11
ATOM     11  C   UNL     1      36.092  57.455  55.812  0.00  0.00    +0.000 A 
ATOM     12  C   UNL     1      35.002  58.236  56.126  0.00  0.00    +0.000 A 
ATOM     13  C   UNL     1      34.630  59.337  55.351  0.00  0.00    +0.000 A 
ATOM     14  C   UNL     1      35.380  59.638  54.248  0.00  0.00    +0.000 A 
ATOM     15  O   UNL     1      35.019  60.728  53.474  0.00  0.00    +0.000 OA
ATOM     16  C   UNL     1      36.474  58.878  53.907  0.00  0.00    +0.000 A 
ATOM     17  O   UNL     1      37.208  59.221  52.780  0.00  0.00    +0.000 OA
ATOM     18  C   UNL     1      36.820  57.783  54.705  0.00  0.00    +0.000 A 
ENDBRANCH   2  11
TORSDOF 2
ENDMDL
MODEL 10
REMARK VINA RESULT:      -6.4     12.520     13.708
REMARK  Name = 
REMARK  2 active torsions:
REMARK  status: ('A' for Active; 'I' for Inactive)
REMARK    1  A    between atoms: C_7  and  C_8
REMARK    2  A    between atoms: C_9  and  C_10
REMARK                            x       y       z     vdW  Elec       q    Type
REMARK                         _______ _______ _______ _____ _____    ______ ____
ROOT
ATOM      1  C   UNL     1      36.366  55.742  57.784  0.00  0.00    +0.000 C 
ATOM      2  C   UNL     1      35.799  56.911  57.759  0.00  0.00    +0.000 C 
ENDROOT
BRANCH   1   9
ATOM      3  O   UNL     1      39.424  53.884  61.019  0.00  0.00    +0.000 OA
ATOM      4  C   UNL     1      38.119  54.053  60.576  0.00  0.00    +0.000 A 
ATOM      5  C   UNL     1      37.038  53.504  61.242  0.00  0.00    +0.000 A 
ATOM      6  C   UNL     1      35.741  53.671  60.801  0.00  0.00    +0.000 A 
ATOM      7  O   UNL     1      34.712  53.092  61.522  0.00  0.00    +0.000 OA
ATOM      8  C   UNL     1      35.550  54.416  59.656  0.00  0.00    +0.000 A 
ATOM      9  C   UNL     1      36.619  54.969  58.981  0.00  0.00    +0.000 A 
ATOM     10  C   UNL     1      37.890  54.783  59.445  0.00  0.00    +0.000 A 
ENDBRANCH   1   9
BRANCH   2  11
ATOM     11  C   UNL     1      35.580  57.625  56.511  0.00  0.00    +0.000 A 
ATOM     12  C   UNL     1      36.441  57.394  55.462  0.00  0.00    +0.000 A 
ATOM     13  C   UNL     1      36.300  58.038  54.230  0.00  0.00    +0.000 A 
ATOM     14  C   UNL     1      35.271  58.924  54.074  0.00  0.00    +0.000 A 
ATOM     15  O   UNL     1      35.123  59.567  52.858  0.00  0.00    +0.000 OA
ATOM     16  C   UNL     1      34.394  59.178  55.102  0.00  0.00    +0.000 A 
ATOM     17  O   UNL     1      33.362  60.084  54.901  0.00  0.00    +0.000 OA
ATOM     18  C   UNL     1      34.562  58.515  56.322  0.00  0.00    +0.000 A 
ENDBRANCH   2  11
TORSDOF 2
ENDMDL
