MODEL 1
REMARK VINA RESULT:      -5.9      0.000      0.000
REMARK  Name = 
REMARK  5 active torsions:
REMARK  status: ('A' for Active; 'I' for Inactive)
REMARK    1  A    between atoms: O_2  and  C_3
REMARK    2  A    between atoms: C_6  and  C_7
REMARK    3  A    between atoms: C_8  and  C_9
REMARK    4  A    between atoms: C_11  and  O_12
REMARK    5  A    between atoms: C_15  and  O_16
REMARK                            x       y       z     vdW  Elec       q    Type
REMARK                         _______ _______ _______ _____ _____    ______ ____
ROOT
ATOM      1  C   UNL     1      36.421  57.367  59.544  0.00  0.00    +0.000 C 
ATOM      2  C   UNL     1      36.341  58.366  58.849  0.00  0.00    +0.000 C 
ENDROOT
BRANCH   1   6
ATOM      3  C   UNL     1      34.449  53.616  59.007  0.00  0.00    +0.000 A 
ATOM      4  C   UNL     1      34.011  54.649  59.803  0.00  0.00    +0.000 A 
ATOM      5  C   UNL     1      34.670  55.834  59.948  0.00  0.00    +0.000 A 
ATOM      6  C   UNL     1      35.887  56.079  59.265  0.00  0.00    +0.000 A 
ATOM      7  C   UNL     1      36.297  55.052  58.492  0.00  0.00    +0.000 A 
ATOM      8  C   UNL     1      35.634  53.850  58.340  0.00  0.00    +0.000 A 
BRANCH   3  10
ATOM      9  C   UNL     1      34.374  51.182  59.205  0.00  0.00    +0.000 C 
ATOM     10  O   UNL     1      33.766  52.416  58.869  0.00  0.00    +0.000 OA
ENDBRANCH   3  10
ENDBRANCH   1   6
BRANCH   2  11
ATOM     11  C   UNL     1      35.710  58.540  57.593  0.00  0.00    +0.000 A 
ATOM     12  C   UNL     1      36.174  58.208  56.367  0.00  0.00    +0.000 A 
ATOM     13  C   UNL     1      35.522  58.396  55.167  0.00  0.00    +0.000 A 
ATOM     14  C   UNL     1      34.260  58.984  55.182  0.00  0.00    +0.000 A 
ATOM     15  C   UNL     1      33.759  59.332  56.403  0.00  0.00    +0.000 A 
ATOM     16  C   UNL     1      34.428  59.133  57.575  0.00  0.00    +0.000 A 
BRANCH  13  17
ATOM     17  O   UNL     1      36.012  58.052  53.927  0.00  0.00    +0.000 OA
ATOM     18  C   UNL     1      36.727  58.893  53.101  0.00  0.00    +0.000 C 
ENDBRANCH  13  17
BRANCH  15  19
ATOM     19  O   UNL     1      32.489  59.919  56.390  0.00  0.00    +0.000 OA
ATOM     20  C   UNL     1      31.979  60.467  55.202  0.00  0.00    +0.000 C 
ENDBRANCH  15  19
ENDBRANCH   2  11
TORSDOF 5
ENDMDL
MODEL 2
REMARK VINA RESULT:      -5.9      0.280      2.666
REMARK  Name = 
REMARK  5 active torsions:
REMARK  status: ('A' for Active; 'I' for Inactive)
REMARK    1  A    between atoms: O_2  and  C_3
REMARK    2  A    between atoms: C_6  and  C_7
REMARK    3  A    between atoms: C_8  and  C_9
REMARK    4  A    between atoms: C_11  and  O_12
REMARK    5  A    between atoms: C_15  and  O_16
REMARK                            x       y       z     vdW  Elec       q    Type
REMARK                         _______ _______ _______ _____ _____    ______ ____
ROOT
ATOM      1  C   UNL     1      36.419  57.230  59.706  0.00  0.00    +0.000 C 
ATOM      2  C   UNL     1      36.420  58.207  58.976  0.00  0.00    +0.000 C 
ENDROOT
BRANCH   1   6
ATOM      3  C   UNL     1      34.397  53.523  59.053  0.00  0.00    +0.000 A 
ATOM      4  C   UNL     1      35.646  53.853  58.581  0.00  0.00    +0.000 A 
ATOM      5  C   UNL     1      36.260  55.049  58.811  0.00  0.00    +0.000 A 
ATOM      6  C   UNL     1      35.624  56.058  59.576  0.00  0.00    +0.000 A 
ATOM      7  C   UNL     1      34.400  55.712  60.028  0.00  0.00    +0.000 A 
ATOM      8  C   UNL     1      33.774  54.503  59.798  0.00  0.00    +0.000 A 
BRANCH   3  10
ATOM      9  C   UNL     1      34.396  51.085  59.201  0.00  0.00    +0.000 C 
ATOM     10  O   UNL     1      33.786  52.302  58.810  0.00  0.00    +0.000 OA
ENDBRANCH   3  10
ENDBRANCH   1   6
BRANCH   2  11
ATOM     11  C   UNL     1      35.652  58.461  57.814  0.00  0.00    +0.000 A 
ATOM     12  C   UNL     1      34.434  59.042  57.722  0.00  0.00    +0.000 A 
ATOM     13  C   UNL     1      33.721  59.270  56.564  0.00  0.00    +0.000 A 
ATOM     14  C   UNL     1      34.280  58.874  55.351  0.00  0.00    +0.000 A 
ATOM     15  C   UNL     1      35.509  58.283  55.405  0.00  0.00    +0.000 A 
ATOM     16  C   UNL     1      36.192  58.071  56.567  0.00  0.00    +0.000 A 
BRANCH  13  17
ATOM     17  O   UNL     1      32.481  59.864  56.491  0.00  0.00    +0.000 OA
ATOM     18  C   UNL     1      32.017  60.588  55.413  0.00  0.00    +0.000 C 
ENDBRANCH  13  17
BRANCH  15  19
ATOM     19  O   UNL     1      36.048  57.896  54.174  0.00  0.00    +0.000 OA
ATOM     20  C   UNL     1      36.038  58.789  53.089  0.00  0.00    +0.000 C 
ENDBRANCH  15  19
ENDBRANCH   2  11
TORSDOF 5
ENDMDL
MODEL 3
REMARK VINA RESULT:      -5.8      2.124      6.450
REMARK  Name = 
REMARK  5 active torsions:
REMARK  status: ('A' for Active; 'I' for Inactive)
REMARK    1  A    between atoms: O_2  and  C_3
REMARK    2  A    between atoms: C_6  and  C_7
REMARK    3  A    between atoms: C_8  and  C_9
REMARK    4  A    between atoms: C_11  and  O_12
REMARK    5  A    between atoms: C_15  and  O_16
REMARK                            x       y       z     vdW  Elec       q    Type
REMARK                         _______ _______ _______ _____ _____    ______ ____
ROOT
ATOM      1  C   UNL     1      34.671  57.528  59.218  0.00  0.00    +0.000 C 
ATOM      2  C   UNL     1      35.085  56.647  59.954  0.00  0.00    +0.000 C 
ENDROOT
BRANCH   1   6
ATOM      3  C   UNL     1      35.307  58.436  55.093  0.00  0.00    +0.000 A 
ATOM      4  C   UNL     1      34.198  58.778  55.831  0.00  0.00    +0.000 A 
ATOM      5  C   UNL     1      34.031  58.470  57.148  0.00  0.00    +0.000 A 
ATOM      6  C   UNL     1      35.025  57.753  57.860  0.00  0.00    +0.000 A 
ATOM      7  C   UNL     1      36.104  57.429  57.116  0.00  0.00    +0.000 A 
ATOM      8  C   UNL     1      36.278  57.738  55.781  0.00  0.00    +0.000 A 
BRANCH   3  10
ATOM      9  C   UNL     1      36.746  58.882  53.170  0.00  0.00    +0.000 C 
ATOM     10  O   UNL     1      35.462  58.758  53.752  0.00  0.00    +0.000 OA
ENDBRANCH   3  10
ENDBRANCH   1   6
BRANCH   2  11
ATOM     11  C   UNL     1      36.015  55.614  59.684  0.00  0.00    +0.000 A 
ATOM     12  C   UNL     1      37.325  55.555  60.016  0.00  0.00    +0.000 A 
ATOM     13  C   UNL     1      38.196  54.525  59.730  0.00  0.00    +0.000 A 
ATOM     14  C   UNL     1      37.712  53.421  59.033  0.00  0.00    +0.000 A 
ATOM     15  C   UNL     1      36.394  53.446  58.681  0.00  0.00    +0.000 A 
ATOM     16  C   UNL     1      35.555  54.480  58.978  0.00  0.00    +0.000 A 
BRANCH  13  17
ATOM     17  O   UNL     1      39.527  54.484  60.077  0.00  0.00    +0.000 OA
ATOM     18  C   UNL     1      40.459  53.629  59.525  0.00  0.00    +0.000 C 
ENDBRANCH  13  17
BRANCH  15  19
ATOM     19  O   UNL     1      35.934  52.324  57.982  0.00  0.00    +0.000 OA
ATOM     20  C   UNL     1      35.166  51.350  58.642  0.00  0.00    +0.000 C 
ENDBRANCH  15  19
ENDBRANCH   2  11
TORSDOF 5
ENDMDL
MODEL 4
REMARK VINA RESULT:      -5.8      2.077      6.770
REMARK  Name = 
REMARK  5 active torsions:
REMARK  status: ('A' for Active; 'I' for Inactive)
REMARK    1  A    between atoms: O_2  and  C_3
REMARK    2  A    between atoms: C_6  and  C_7
REMARK    3  A    between atoms: C_8  and  C_9
REMARK    4  A    between atoms: C_11  and  O_12
REMARK    5  A    between atoms: C_15  and  O_16
REMARK                            x       y       z     vdW  Elec       q    Type
REMARK                         _______ _______ _______ _____ _____    ______ ____
ROOT
ATOM      1  C   UNL     1      35.055  57.401  59.000  0.00  0.00    +0.000 C 
ATOM      2  C   UNL     1      35.332  56.470  59.739  0.00  0.00    +0.000 C 
ENDROOT
BRANCH   1   6
ATOM      3  C   UNL     1      35.604  58.093  54.820  0.00  0.00    +0.000 A 
ATOM      4  C   UNL     1      34.668  58.705  55.622  0.00  0.00    +0.000 A 
ATOM      5  C   UNL     1      34.524  58.457  56.955  0.00  0.00    +0.000 A 
ATOM      6  C   UNL     1      35.357  57.521  57.617  0.00  0.00    +0.000 A 
ATOM      7  C   UNL     1      36.267  56.934  56.810  0.00  0.00    +0.000 A 
ATOM      8  C   UNL     1      36.418  57.181  55.460  0.00  0.00    +0.000 A 
BRANCH   3  10
ATOM      9  C   UNL     1      36.788  59.170  52.976  0.00  0.00    +0.000 C 
ATOM     10  O   UNL     1      35.738  58.357  53.465  0.00  0.00    +0.000 OA
ENDBRANCH   3  10
ENDBRANCH   1   6
BRANCH   2  11
ATOM     11  C   UNL     1      36.018  55.266  59.449  0.00  0.00    +0.000 A 
ATOM     12  C   UNL     1      35.509  54.096  59.002  0.00  0.00    +0.000 A 
ATOM     13  C   UNL     1      36.219  52.945  58.733  0.00  0.00    +0.000 A 
ATOM     14  C   UNL     1      37.597  52.953  58.930  0.00  0.00    +0.000 A 
ATOM     15  C   UNL     1      38.146  54.118  59.380  0.00  0.00    +0.000 A 
ATOM     16  C   UNL     1      37.418  55.242  59.638  0.00  0.00    +0.000 A 
BRANCH  13  17
ATOM     17  O   UNL     1      35.681  51.761  58.278  0.00  0.00    +0.000 OA
ATOM     18  C   UNL     1      34.679  51.056  58.911  0.00  0.00    +0.000 C 
ENDBRANCH  13  17
BRANCH  15  19
ATOM     19  O   UNL     1      39.532  54.099  59.569  0.00  0.00    +0.000 OA
ATOM     20  C   UNL     1      40.077  54.446  60.816  0.00  0.00    +0.000 C 
ENDBRANCH  15  19
ENDBRANCH   2  11
TORSDOF 5
ENDMDL
MODEL 5
REMARK VINA RESULT:      -5.6      5.119      6.889
REMARK  Name = 
REMARK  5 active torsions:
REMARK  status: ('A' for Active; 'I' for Inactive)
REMARK    1  A    between atoms: O_2  and  C_3
REMARK    2  A    between atoms: C_6  and  C_7
REMARK    3  A    between atoms: C_8  and  C_9
REMARK    4  A    between atoms: C_11  and  O_12
REMARK    5  A    between atoms: C_15  and  O_16
REMARK                            x       y       z     vdW  Elec       q    Type
REMARK                         _______ _______ _______ _____ _____    ______ ____
ROOT
ATOM      1  C   UNL     1      35.466  54.128  59.239  0.00  0.00    +0.000 C 
ATOM      2  C   UNL     1      36.501  54.652  58.859  0.00  0.00    +0.000 C 
ENDROOT
BRANCH   1   6
ATOM      3  C   UNL     1      34.998  50.454  61.368  0.00  0.00    +0.000 A 
ATOM      4  C   UNL     1      34.920  50.610  60.003  0.00  0.00    +0.000 A 
ATOM      5  C   UNL     1      35.076  51.801  59.359  0.00  0.00    +0.000 A 
ATOM      6  C   UNL     1      35.336  52.992  60.083  0.00  0.00    +0.000 A 
ATOM      7  C   UNL     1      35.407  52.815  61.419  0.00  0.00    +0.000 A 
ATOM      8  C   UNL     1      35.250  51.611  62.077  0.00  0.00    +0.000 A 
BRANCH   3  10
ATOM      9  C   UNL     1      34.651  49.159  63.409  0.00  0.00    +0.000 C 
ATOM     10  O   UNL     1      34.837  49.234  62.008  0.00  0.00    +0.000 OA
ENDBRANCH   3  10
ENDBRANCH   1   6
BRANCH   2  11
ATOM     11  C   UNL     1      37.843  54.296  59.137  0.00  0.00    +0.000 A 
ATOM     12  C   UNL     1      38.670  53.509  58.414  0.00  0.00    +0.000 A 
ATOM     13  C   UNL     1      39.975  53.188  58.725  0.00  0.00    +0.000 A 
ATOM     14  C   UNL     1      40.526  53.710  59.893  0.00  0.00    +0.000 A 
ATOM     15  C   UNL     1      39.719  54.509  60.649  0.00  0.00    +0.000 A 
ATOM     16  C   UNL     1      38.431  54.809  60.315  0.00  0.00    +0.000 A 
BRANCH  13  17
ATOM     17  O   UNL     1      40.803  52.384  57.975  0.00  0.00    +0.000 OA
ATOM     18  C   UNL     1      42.138  52.162  58.239  0.00  0.00    +0.000 C 
ENDBRANCH  13  17
BRANCH  15  19
ATOM     19  O   UNL     1      40.298  55.020  61.816  0.00  0.00    +0.000 OA
ATOM     20  C   UNL     1      40.735  54.147  62.825  0.00  0.00    +0.000 C 
ENDBRANCH  15  19
ENDBRANCH   2  11
TORSDOF 5
ENDMDL
MODEL 6
REMARK VINA RESULT:      -5.6      5.133      7.214
REMARK  Name = 
REMARK  5 active torsions:
REMARK  status: ('A' for Active; 'I' for Inactive)
REMARK    1  A    between atoms: O_2  and  C_3
REMARK    2  A    between atoms: C_6  and  C_7
REMARK    3  A    between atoms: C_8  and  C_9
REMARK    4  A    between atoms: C_11  and  O_12
REMARK    5  A    between atoms: C_15  and  O_16
REMARK                            x       y       z     vdW  Elec       q    Type
REMARK                         _______ _______ _______ _____ _____    ______ ____
ROOT
ATOM      1  C   UNL     1      35.522  54.132  59.174  0.00  0.00    +0.000 C 
ATOM      2  C   UNL     1      36.566  54.690  58.882  0.00  0.00    +0.000 C 
ENDROOT
BRANCH   1   6
ATOM      3  C   UNL     1      34.971  50.480  61.321  0.00  0.00    +0.000 A 
ATOM      4  C   UNL     1      34.959  50.619  59.953  0.00  0.00    +0.000 A 
ATOM      5  C   UNL     1      35.139  51.804  59.303  0.00  0.00    +0.000 A 
ATOM      6  C   UNL     1      35.356  53.004  60.024  0.00  0.00    +0.000 A 
ATOM      7  C   UNL     1      35.364  52.843  61.364  0.00  0.00    +0.000 A 
ATOM      8  C   UNL     1      35.182  51.646  62.028  0.00  0.00    +0.000 A 
BRANCH   3  10
ATOM      9  C   UNL     1      34.702  49.190  63.378  0.00  0.00    +0.000 C 
ATOM     10  O   UNL     1      34.787  49.266  61.967  0.00  0.00    +0.000 OA
ENDBRANCH   3  10
ENDBRANCH   1   6
BRANCH   2  11
ATOM     11  C   UNL     1      37.889  54.391  59.288  0.00  0.00    +0.000 A 
ATOM     12  C   UNL     1      38.529  54.776  60.416  0.00  0.00    +0.000 A 
ATOM     13  C   UNL     1      39.823  54.460  60.771  0.00  0.00    +0.000 A 
ATOM     14  C   UNL     1      40.574  53.668  59.906  0.00  0.00    +0.000 A 
ATOM     15  C   UNL     1      39.961  53.261  58.758  0.00  0.00    +0.000 A 
ATOM     16  C   UNL     1      38.678  53.589  58.432  0.00  0.00    +0.000 A 
BRANCH  13  17
ATOM     17  O   UNL     1      40.458  54.862  61.925  0.00  0.00    +0.000 OA
ATOM     18  C   UNL     1      40.918  54.012  62.908  0.00  0.00    +0.000 C 
ENDBRANCH  13  17
BRANCH  15  19
ATOM     19  O   UNL     1      40.737  52.465  57.907  0.00  0.00    +0.000 OA
ATOM     20  C   UNL     1      42.091  52.234  58.202  0.00  0.00    +0.000 C 
ENDBRANCH  15  19
ENDBRANCH   2  11
TORSDOF 5
ENDMDL
MODEL 7
REMARK VINA RESULT:      -5.4      2.622      3.638
REMARK  Name = 
REMARK  5 active torsions:
REMARK  status: ('A' for Active; 'I' for Inactive)
REMARK    1  A    between atoms: O_2  and  C_3
REMARK    2  A    between atoms: C_6  and  C_7
REMARK    3  A    between atoms: C_8  and  C_9
REMARK    4  A    between atoms: C_11  and  O_12
REMARK    5  A    between atoms: C_15  and  O_16
REMARK                            x       y       z     vdW  Elec       q    Type
REMARK                         _______ _______ _______ _____ _____    ______ ____
ROOT
ATOM      1  C   UNL     1      34.748  56.489  59.108  0.00  0.00    +0.000 C 
ATOM      2  C   UNL     1      34.587  57.484  58.422  0.00  0.00    +0.000 C 
ENDROOT
BRANCH   1   6
ATOM      3  C   UNL     1      38.385  54.404  59.930  0.00  0.00    +0.000 A 
ATOM      4  C   UNL     1      37.812  55.368  60.726  0.00  0.00    +0.000 A 
ATOM      5  C   UNL     1      36.648  56.012  60.430  0.00  0.00    +0.000 A 
ATOM      6  C   UNL     1      35.934  55.717  59.241  0.00  0.00    +0.000 A 
ATOM      7  C   UNL     1      36.515  54.769  58.476  0.00  0.00    +0.000 A 
ATOM      8  C   UNL     1      37.694  54.113  58.771  0.00  0.00    +0.000 A 
BRANCH   3  10
ATOM      9  C   UNL     1      40.337  54.137  61.374  0.00  0.00    +0.000 C 
ATOM     10  O   UNL     1      39.571  53.757  60.246  0.00  0.00    +0.000 OA
ENDBRANCH   3  10
ENDBRANCH   1   6
BRANCH   2  11
ATOM     11  C   UNL     1      35.506  58.150  57.574  0.00  0.00    +0.000 A 
ATOM     12  C   UNL     1      36.419  59.092  57.900  0.00  0.00    +0.000 A 
ATOM     13  C   UNL     1      37.296  59.714  57.037  0.00  0.00    +0.000 A 
ATOM     14  C   UNL     1      37.265  59.362  55.691  0.00  0.00    +0.000 A 
ATOM     15  C   UNL     1      36.356  58.413  55.325  0.00  0.00    +0.000 A 
ATOM     16  C   UNL     1      35.500  57.814  56.201  0.00  0.00    +0.000 A 
BRANCH  13  17
ATOM     17  O   UNL     1      38.220  60.673  57.389  0.00  0.00    +0.000 OA
ATOM     18  C   UNL     1      39.483  60.788  56.846  0.00  0.00    +0.000 C 
ENDBRANCH  13  17
BRANCH  15  19
ATOM     19  O   UNL     1      36.346  58.077  53.966  0.00  0.00    +0.000 OA
ATOM     20  C   UNL     1      35.708  58.916  53.038  0.00  0.00    +0.000 C 
ENDBRANCH  15  19
ENDBRANCH   2  11
TORSDOF 5
ENDMDL
MODEL 8
REMARK VINA RESULT:      -5.4      3.853      8.214
REMARK  Name = 
REMARK  5 active torsions:
REMARK  status: ('A' for Active; 'I' for Inactive)
REMARK    1  A    between atoms: O_2  and  C_3
REMARK    2  A    between atoms: C_6  and  C_7
REMARK    3  A    between atoms: C_8  and  C_9
REMARK    4  A    between atoms: C_11  and  O_12
REMARK    5  A    between atoms: C_15  and  O_16
REMARK                            x       y       z     vdW  Elec       q    Type
REMARK                         _______ _______ _______ _____ _____    ______ ____
ROOT
ATOM      1  C   UNL     1      33.865  52.792  58.666  0.00  0.00    +0.000 C 
ATOM      2  C   UNL     1      34.107  51.609  58.841  0.00  0.00    +0.000 C 
ENDROOT
BRANCH   1   6
ATOM      3  C   UNL     1      36.355  56.116  59.671  0.00  0.00    +0.000 A 
ATOM      4  C   UNL     1      36.402  55.400  58.498  0.00  0.00    +0.000 A 
ATOM      5  C   UNL     1      35.589  54.343  58.213  0.00  0.00    +0.000 A 
ATOM      6  C   UNL     1      34.613  53.904  59.142  0.00  0.00    +0.000 A 
ATOM      7  C   UNL     1      34.586  54.620  60.286  0.00  0.00    +0.000 A 
ATOM      8  C   UNL     1      35.407  55.691  60.580  0.00  0.00    +0.000 A 
BRANCH   3  10
ATOM      9  C   UNL     1      36.818  58.513  59.611  0.00  0.00    +0.000 C 
ATOM     10  O   UNL     1      37.189  57.189  59.946  0.00  0.00    +0.000 OA
ENDBRANCH   3  10
ENDBRANCH   1   6
BRANCH   2  11
ATOM     11  C   UNL     1      35.173  51.005  59.550  0.00  0.00    +0.000 A 
ATOM     12  C   UNL     1      36.490  51.001  59.244  0.00  0.00    +0.000 A 
ATOM     13  C   UNL     1      37.497  50.397  59.967  0.00  0.00    +0.000 A 
ATOM     14  C   UNL     1      37.159  49.715  61.133  0.00  0.00    +0.000 A 
ATOM     15  C   UNL     1      35.838  49.698  61.474  0.00  0.00    +0.000 A 
ATOM     16  C   UNL     1      34.863  50.306  60.739  0.00  0.00    +0.000 A 
BRANCH  13  17
ATOM     17  O   UNL     1      38.834  50.403  59.638  0.00  0.00    +0.000 OA
ATOM     18  C   UNL     1      39.567  51.534  59.345  0.00  0.00    +0.000 C 
ENDBRANCH  13  17
BRANCH  15  19
ATOM     19  O   UNL     1      35.526  49.007  62.650  0.00  0.00    +0.000 OA
ATOM     20  C   UNL     1      34.276  48.381  62.788  0.00  0.00    +0.000 C 
ENDBRANCH  15  19
ENDBRANCH   2  11
TORSDOF 5
ENDMDL
MODEL 9
REMARK VINA RESULT:      -5.3      3.653      6.420
REMARK  Name = 
REMARK  5 active torsions:
REMARK  status: ('A' for Active; 'I' for Inactive)
REMARK    1  A    between atoms: O_2  and  C_3
REMARK    2  A    between atoms: C_6  and  C_7
REMARK    3  A    between atoms: C_8  and  C_9
REMARK    4  A    between atoms: C_11  and  O_12
REMARK    5  A    between atoms: C_15  and  O_16
REMARK                            x       y       z     vdW  Elec       q    Type
REMARK                         _______ _______ _______ _____ _____    ______ ____
ROOT
ATOM      1  C   UNL     1      34.730  50.670  59.607  0.00  0.00    +0.000 C 
ATOM      2  C   UNL     1      35.064  51.374  58.668  0.00  0.00    +0.000 C 
ENDROOT
BRANCH   1   6
ATOM      3  C   UNL     1      36.241  50.514  63.600  0.00  0.00    +0.000 A 
ATOM      4  C   UNL     1      36.367  49.525  62.652  0.00  0.00    +0.000 A 
ATOM      5  C   UNL     1      35.870  49.612  61.386  0.00  0.00    +0.000 A 
ATOM      6  C   UNL     1      35.170  50.767  60.955  0.00  0.00    +0.000 A 
ATOM      7  C   UNL     1      35.059  51.723  61.902  0.00  0.00    +0.000 A 
ATOM      8  C   UNL     1      35.559  51.640  63.186  0.00  0.00    +0.000 A 
BRANCH   3  10
ATOM      9  C   UNL     1      36.380  51.324  65.900  0.00  0.00    +0.000 C 
ATOM     10  O   UNL     1      36.752  50.410  64.885  0.00  0.00    +0.000 OA
ENDBRANCH   3  10
ENDBRANCH   1   6
BRANCH   2  11
ATOM     11  C   UNL     1      35.964  52.467  58.641  0.00  0.00    +0.000 A 
ATOM     12  C   UNL     1      37.313  52.448  58.742  0.00  0.00    +0.000 A 
ATOM     13  C   UNL     1      38.151  53.542  58.709  0.00  0.00    +0.000 A 
ATOM     14  C   UNL     1      37.587  54.806  58.560  0.00  0.00    +0.000 A 
ATOM     15  C   UNL     1      36.229  54.864  58.454  0.00  0.00    +0.000 A 
ATOM     16  C   UNL     1      35.423  53.764  58.489  0.00  0.00    +0.000 A 
BRANCH  13  17
ATOM     17  O   UNL     1      39.523  53.502  58.815  0.00  0.00    +0.000 OA
ATOM     18  C   UNL     1      40.245  53.961  59.897  0.00  0.00    +0.000 C 
ENDBRANCH  13  17
BRANCH  15  19
ATOM     19  O   UNL     1      35.688  56.146  58.303  0.00  0.00    +0.000 OA
ATOM     20  C   UNL     1      34.645  56.573  59.141  0.00  0.00    +0.000 C 
ENDBRANCH  15  19
ENDBRANCH   2  11
TORSDOF 5
ENDMDL
MODEL 10
REMARK VINA RESULT:      -5.3      3.392      4.877
REMARK  Name = 
REMARK  5 active torsions:
REMARK  status: ('A' for Active; 'I' for Inactive)
REMARK    1  A    between atoms: O_2  and  C_3
REMARK    2  A    between atoms: C_6  and  C_7
REMARK    3  A    between atoms: C_8  and  C_9
REMARK    4  A    between atoms: C_11  and  O_12
REMARK    5  A    between atoms: C_15  and  O_16
REMARK                            x       y       z     vdW  Elec       q    Type
REMARK                         _______ _______ _______ _____ _____    ______ ____
ROOT
ATOM      1  C   UNL     1      36.296  54.137  60.362  0.00  0.00    +0.000 C 
ATOM      2  C   UNL     1      35.552  54.995  59.915  0.00  0.00    +0.000 C 
ENDROOT
BRANCH   1   6
ATOM      3  C   UNL     1      40.435  53.572  59.468  0.00  0.00    +0.000 A 
ATOM      4  C   UNL     1      39.379  53.026  58.774  0.00  0.00    +0.000 A 
ATOM      5  C   UNL     1      38.069  53.231  59.091  0.00  0.00    +0.000 A 
ATOM      6  C   UNL     1      37.704  54.045  60.192  0.00  0.00    +0.000 A 
ATOM      7  C   UNL     1      38.756  54.569  60.857  0.00  0.00    +0.000 A 
ATOM      8  C   UNL     1      40.085  54.365  60.541  0.00  0.00    +0.000 A 
BRANCH   3  10
ATOM      9  C   UNL     1      42.121  52.488  58.072  0.00  0.00    +0.000 C 
ATOM     10  O   UNL     1      41.763  53.354  59.132  0.00  0.00    +0.000 OA
ENDBRANCH   3  10
ENDBRANCH   1   6
BRANCH   2  11
ATOM     11  C   UNL     1      35.858  56.122  59.116  0.00  0.00    +0.000 A 
ATOM     12  C   UNL     1      36.076  57.398  59.510  0.00  0.00    +0.000 A 
ATOM     13  C   UNL     1      36.373  58.468  58.692  0.00  0.00    +0.000 A 
ATOM     14  C   UNL     1      36.464  58.249  57.320  0.00  0.00    +0.000 A 
ATOM     15  C   UNL     1      36.250  56.974  56.886  0.00  0.00    +0.000 A 
ATOM     16  C   UNL     1      35.959  55.934  57.719  0.00  0.00    +0.000 A 
BRANCH  13  17
ATOM     17  O   UNL     1      36.591  59.760  59.113  0.00  0.00    +0.000 OA
ATOM     18  C   UNL     1      37.791  60.432  59.005  0.00  0.00    +0.000 C 
ENDBRANCH  13  17
BRANCH  15  19
ATOM     19  O   UNL     1      36.349  56.781  55.503  0.00  0.00    +0.000 OA
ATOM     20  C   UNL     1      36.780  57.831  54.676  0.00  0.00    +0.000 C 
ENDBRANCH  15  19
ENDBRANCH   2  11
TORSDOF 5
ENDMDL
