REMARK  Name = 
REMARK  8 active torsions:
REMARK  status: ('A' for Active; 'I' for Inactive)
REMARK    1  A    between atoms: C_2  and  O_4
REMARK    2  A    between atoms: O_4  and  C_5
REMARK    3  A    between atoms: C_8  and  C_9
REMARK    4  A    between atoms: C_10  and  C_11
REMARK    5  A    between atoms: C_13  and  O_14
REMARK    6  A    between atoms: O_14  and  C_15
REMARK    7  A    between atoms: C_19  and  O_20
REMARK    8  A    between atoms: O_20  and  C_21
REMARK                            x       y       z     vdW  Elec       q    Type
REMARK                         _______ _______ _______ _____ _____    ______ ____
ROOT
ATOM      1  C   UNL     1      -1.107  -1.488   0.749  0.00  0.00    +0.000 A 
ATOM      2  C   UNL     1      -2.452  -1.915   0.676  0.00  0.00    +0.000 A 
ATOM      3  C   UNL     1      -3.384  -1.148   0.023  0.00  0.00    +0.000 A 
ATOM      4  C   UNL     1      -3.036   0.044  -0.573  0.00  0.00    +0.000 A 
ATOM      5  C   UNL     1      -1.722   0.500  -0.524  0.00  0.00    +0.000 A 
ATOM      6  C   UNL     1      -0.850  -0.315   0.143  0.00  0.00    +0.000 A 
ENDROOT
BRANCH   1   8
ATOM      7  C   UNL     1       0.986  -2.197   1.641  0.00  0.00    +0.000 C 
ATOM      8  C   UNL     1      -0.236  -2.353   1.444  0.00  0.00    +0.000 C 
BRANCH   7  12
ATOM      9  C   UNL     1       3.712   0.860   0.544  0.00  0.00    +0.000 A 
ATOM     10  C   UNL     1       4.060  -0.260   1.261  0.00  0.00    +0.000 A 
ATOM     11  C   UNL     1       3.167  -1.228   1.602  0.00  0.00    +0.000 A 
ATOM     12  C   UNL     1       1.810  -1.137   1.233  0.00  0.00    +0.000 A 
ATOM     13  C   UNL     1       1.494  -0.035   0.533  0.00  0.00    +0.000 A 
ATOM     14  C   UNL     1       2.378   0.961   0.174  0.00  0.00    +0.000 A 
BRANCH   9  15
ATOM     15  O   UNL     1       4.643   1.832   0.210  0.00  0.00    +0.000 OA
BRANCH  15  17
ATOM     16  C   UNL     1       6.351   2.865  -1.249  0.00  0.00    +0.000 C 
ATOM     17  C   UNL     1       5.375   1.781  -0.972  0.00  0.00    +0.000 C 
ATOM     18  O   UNL     1       5.179   0.814  -1.762  0.00  0.00    +0.000 OA
ENDBRANCH  15  17
ENDBRANCH   9  15
ENDBRANCH   7  12
ENDBRANCH   1   8
BRANCH   3  19
ATOM     19  O   UNL     1      -4.707  -1.534  -0.068  0.00  0.00    +0.000 OA
BRANCH  19  20
ATOM     20  C   UNL     1      -5.080  -2.309  -1.158  0.00  0.00    +0.000 C 
ATOM     21  C   UNL     1      -6.511  -2.755  -1.303  0.00  0.00    +0.000 C 
ATOM     22  O   UNL     1      -4.223  -2.630  -2.011  0.00  0.00    +0.000 OA
ENDBRANCH  19  20
ENDBRANCH   3  19
BRANCH   5  23
ATOM     23  O   UNL     1      -1.397   1.702  -1.130  0.00  0.00    +0.000 OA
BRANCH  23  24
ATOM     24  C   UNL     1      -1.469   2.889  -0.426  0.00  0.00    +0.000 C 
ATOM     25  C   UNL     1      -1.139   4.215  -1.000  0.00  0.00    +0.000 C 
ATOM     26  O   UNL     1      -1.839   2.840   0.782  0.00  0.00    +0.000 OA
ENDBRANCH  23  24
ENDBRANCH   5  23
TORSDOF 8
