REMARK  Name = 
REMARK  3 active torsions:
REMARK  status: ('A' for Active; 'I' for Inactive)
REMARK    1  A    between atoms: O_2  and  C_3
REMARK    2  A    between atoms: C_7  and  C_8
REMARK    3  A    between atoms: C_9  and  C_10
REMARK                            x       y       z     vdW  Elec       q    Type
REMARK                         _______ _______ _______ _____ _____    ______ ____
ROOT
ATOM      1  C   UNL     1       4.000   0.238   0.387  0.00  0.00    +0.000 A 
ATOM      2  C   UNL     1       3.433  -0.862   0.995  0.00  0.00    +0.000 A 
ATOM      3  O   UNL     1       4.320  -1.745   1.620  0.00  0.00    +0.000 OA
ATOM      4  C   UNL     1       2.077  -1.098   0.999  0.00  0.00    +0.000 A 
ATOM      5  C   UNL     1       1.220  -0.218   0.379  0.00  0.00    +0.000 A 
ATOM      6  C   UNL     1       1.756   0.885  -0.235  0.00  0.00    +0.000 A 
ATOM      7  C   UNL     1       3.117   1.105  -0.229  0.00  0.00    +0.000 A 
ATOM      8  O   UNL     1       3.669   2.235  -0.857  0.00  0.00    +0.000 OA
ENDROOT
BRANCH   1  10
ATOM      9  C   UNL     1       6.123  -0.026  -0.720  0.00  0.00    +0.000 C 
ATOM     10  O   UNL     1       5.362   0.500   0.366  0.00  0.00    +0.000 OA
ENDBRANCH   1  10
BRANCH   5  11
ATOM     11  C   UNL     1      -0.214  -0.470   0.385  0.00  0.00    +0.000 C 
ATOM     12  C   UNL     1      -1.074   0.331  -0.188  0.00  0.00    +0.000 C 
BRANCH  12  13
ATOM     13  C   UNL     1      -2.509   0.092  -0.190  0.00  0.00    +0.000 A 
ATOM     14  C   UNL     1      -3.074  -1.005   0.417  0.00  0.00    +0.000 A 
ATOM     15  C   UNL     1      -4.442  -1.155   0.368  0.00  0.00    +0.000 A 
ATOM     16  O   UNL     1      -5.050  -2.250   0.969  0.00  0.00    +0.000 OA
ATOM     17  C   UNL     1      -5.228  -0.235  -0.270  0.00  0.00    +0.000 A 
ATOM     18  C   UNL     1      -4.686   0.877  -0.888  0.00  0.00    +0.000 A 
ATOM     19  O   UNL     1      -5.480   1.796  -1.525  0.00  0.00    +0.000 OA
ATOM     20  C   UNL     1      -3.320   1.004  -0.825  0.00  0.00    +0.000 A 
ENDBRANCH  12  13
ENDBRANCH   5  11
TORSDOF 3
