MODEL 1
REMARK VINA RESULT:      -6.7      0.000      0.000
REMARK  Name = 
REMARK  2 active torsions:
REMARK  status: ('A' for Active; 'I' for Inactive)
REMARK    1  A    between atoms: C_5  and  C_6
REMARK    2  A    between atoms: C_7  and  C_8
REMARK                            x       y       z     vdW  Elec       q    Type
REMARK                         _______ _______ _______ _____ _____    ______ ____
ROOT
ATOM      1  C   UNL     1      31.156  46.124  62.120  0.00  0.00    +0.000 C 
ATOM      2  C   UNL     1      30.023  45.637  62.533  0.00  0.00    +0.000 C 
ENDROOT
BRANCH   2   3
ATOM      3  C   UNL     1      28.833  46.422  62.819  0.00  0.00    +0.000 A 
ATOM      4  C   UNL     1      28.107  46.134  63.956  0.00  0.00    +0.000 A 
ATOM      5  C   UNL     1      26.967  46.863  64.257  0.00  0.00    +0.000 A 
ATOM      6  O   UNL     1      26.225  46.587  65.397  0.00  0.00    +0.000 OA
ATOM      7  C   UNL     1      26.513  47.892  63.451  0.00  0.00    +0.000 A 
ATOM      8  O   UNL     1      25.371  48.628  63.745  0.00  0.00    +0.000 OA
ATOM      9  C   UNL     1      27.252  48.165  62.319  0.00  0.00    +0.000 A 
ATOM     10  O   UNL     1      26.839  49.184  61.481  0.00  0.00    +0.000 OA
ATOM     11  C   UNL     1      28.389  47.450  62.004  0.00  0.00    +0.000 A 
ENDBRANCH   2   3
BRANCH   1  16
ATOM     12  O   UNL     1      35.711  42.958  60.925  0.00  0.00    +0.000 OA
ATOM     13  C   UNL     1      34.601  43.747  61.234  0.00  0.00    +0.000 A 
ATOM     14  C   UNL     1      34.654  44.750  62.180  0.00  0.00    +0.000 A 
ATOM     15  C   UNL     1      33.549  45.522  62.474  0.00  0.00    +0.000 A 
ATOM     16  C   UNL     1      32.342  45.329  61.836  0.00  0.00    +0.000 A 
ATOM     17  C   UNL     1      32.290  44.327  60.889  0.00  0.00    +0.000 A 
ATOM     18  C   UNL     1      33.396  43.553  60.594  0.00  0.00    +0.000 A 
ENDBRANCH   1  16
TORSDOF 2
ENDMDL
MODEL 2
REMARK VINA RESULT:      -6.6      1.265      7.714
REMARK  Name = 
REMARK  2 active torsions:
REMARK  status: ('A' for Active; 'I' for Inactive)
REMARK    1  A    between atoms: C_5  and  C_6
REMARK    2  A    between atoms: C_7  and  C_8
REMARK                            x       y       z     vdW  Elec       q    Type
REMARK                         _______ _______ _______ _____ _____    ______ ____
ROOT
ATOM      1  C   UNL     1      29.892  46.295  62.405  0.00  0.00    +0.000 C 
ATOM      2  C   UNL     1      30.135  45.048  62.125  0.00  0.00    +0.000 C 
ENDROOT
BRANCH   2   3
ATOM      3  C   UNL     1      31.404  44.538  61.633  0.00  0.00    +0.000 A 
ATOM      4  C   UNL     1      31.398  43.668  60.562  0.00  0.00    +0.000 A 
ATOM      5  C   UNL     1      32.590  43.163  60.068  0.00  0.00    +0.000 A 
ATOM      6  O   UNL     1      32.601  42.288  58.991  0.00  0.00    +0.000 OA
ATOM      7  C   UNL     1      33.818  43.499  60.613  0.00  0.00    +0.000 A 
ATOM      8  O   UNL     1      35.018  42.997  60.123  0.00  0.00    +0.000 OA
ATOM      9  C   UNL     1      33.804  44.369  61.682  0.00  0.00    +0.000 A 
ATOM     10  O   UNL     1      35.005  44.735  62.262  0.00  0.00    +0.000 OA
ATOM     11  C   UNL     1      32.626  44.881  62.187  0.00  0.00    +0.000 A 
ENDBRANCH   2   3
BRANCH   1  16
ATOM     12  O   UNL     1      24.923  48.338  64.232  0.00  0.00    +0.000 OA
ATOM     13  C   UNL     1      26.145  47.821  63.798  0.00  0.00    +0.000 A 
ATOM     14  C   UNL     1      26.745  46.742  64.413  0.00  0.00    +0.000 A 
ATOM     15  C   UNL     1      27.954  46.243  63.972  0.00  0.00    +0.000 A 
ATOM     16  C   UNL     1      28.617  46.796  62.898  0.00  0.00    +0.000 A 
ATOM     17  C   UNL     1      28.015  47.875  62.282  0.00  0.00    +0.000 A 
ATOM     18  C   UNL     1      26.806  48.376  62.723  0.00  0.00    +0.000 A 
ENDBRANCH   1  16
TORSDOF 2
ENDMDL
MODEL 3
REMARK VINA RESULT:      -6.5      1.296      7.664
REMARK  Name = 
REMARK  2 active torsions:
REMARK  status: ('A' for Active; 'I' for Inactive)
REMARK    1  A    between atoms: C_5  and  C_6
REMARK    2  A    between atoms: C_7  and  C_8
REMARK                            x       y       z     vdW  Elec       q    Type
REMARK                         _______ _______ _______ _____ _____    ______ ____
ROOT
ATOM      1  C   UNL     1      29.837  46.261  62.486  0.00  0.00    +0.000 C 
ATOM      2  C   UNL     1      29.996  45.046  62.052  0.00  0.00    +0.000 C 
ENDROOT
BRANCH   2   3
ATOM      3  C   UNL     1      31.258  44.480  61.604  0.00  0.00    +0.000 A 
ATOM      4  C   UNL     1      32.427  44.926  62.186  0.00  0.00    +0.000 A 
ATOM      5  C   UNL     1      33.647  44.407  61.782  0.00  0.00    +0.000 A 
ATOM      6  O   UNL     1      34.832  44.844  62.357  0.00  0.00    +0.000 OA
ATOM      7  C   UNL     1      33.750  43.439  60.798  0.00  0.00    +0.000 A 
ATOM      8  O   UNL     1      34.970  42.914  60.386  0.00  0.00    +0.000 OA
ATOM      9  C   UNL     1      32.572  43.007  60.228  0.00  0.00    +0.000 A 
ATOM     10  O   UNL     1      32.622  42.041  59.240  0.00  0.00    +0.000 OA
ATOM     11  C   UNL     1      31.348  43.512  60.618  0.00  0.00    +0.000 A 
ENDBRANCH   2   3
BRANCH   1  16
ATOM     12  O   UNL     1      24.889  48.344  64.324  0.00  0.00    +0.000 OA
ATOM     13  C   UNL     1      26.106  47.846  63.856  0.00  0.00    +0.000 A 
ATOM     14  C   UNL     1      26.746  48.385  62.760  0.00  0.00    +0.000 A 
ATOM     15  C   UNL     1      27.950  47.881  62.310  0.00  0.00    +0.000 A 
ATOM     16  C   UNL     1      28.568  46.818  62.933  0.00  0.00    +0.000 A 
ATOM     17  C   UNL     1      27.927  46.280  64.030  0.00  0.00    +0.000 A 
ATOM     18  C   UNL     1      26.722  46.783  64.482  0.00  0.00    +0.000 A 
ENDBRANCH   1  16
TORSDOF 2
ENDMDL
MODEL 4
REMARK VINA RESULT:      -6.4     14.546     17.086
REMARK  Name = 
REMARK  2 active torsions:
REMARK  status: ('A' for Active; 'I' for Inactive)
REMARK    1  A    between atoms: C_5  and  C_6
REMARK    2  A    between atoms: C_7  and  C_8
REMARK                            x       y       z     vdW  Elec       q    Type
REMARK                         _______ _______ _______ _____ _____    ______ ____
ROOT
ATOM      1  C   UNL     1      31.979  59.963  56.658  0.00  0.00    +0.000 C 
ATOM      2  C   UNL     1      32.655  60.002  55.546  0.00  0.00    +0.000 C 
ENDROOT
BRANCH   2   3
ATOM      3  C   UNL     1      33.905  59.301  55.306  0.00  0.00    +0.000 A 
ATOM      4  C   UNL     1      34.429  58.518  56.315  0.00  0.00    +0.000 A 
ATOM      5  C   UNL     1      35.619  57.836  56.118  0.00  0.00    +0.000 A 
ATOM      6  O   UNL     1      36.160  57.044  57.122  0.00  0.00    +0.000 OA
ATOM      7  C   UNL     1      36.324  57.905  54.929  0.00  0.00    +0.000 A 
ATOM      8  O   UNL     1      37.519  57.224  54.724  0.00  0.00    +0.000 OA
ATOM      9  C   UNL     1      35.785  58.691  53.934  0.00  0.00    +0.000 A 
ATOM     10  O   UNL     1      36.451  58.793  52.727  0.00  0.00    +0.000 OA
ATOM     11  C   UNL     1      34.601  59.378  54.112  0.00  0.00    +0.000 A 
ENDBRANCH   2   3
BRANCH   1  16
ATOM     12  O   UNL     1      27.041  62.603  57.576  0.00  0.00    +0.000 OA
ATOM     13  C   UNL     1      28.265  61.972  57.347  0.00  0.00    +0.000 A 
ATOM     14  C   UNL     1      29.410  62.680  57.046  0.00  0.00    +0.000 A 
ATOM     15  C   UNL     1      30.613  62.042  56.822  0.00  0.00    +0.000 A 
ATOM     16  C   UNL     1      30.727  60.670  56.887  0.00  0.00    +0.000 A 
ATOM     17  C   UNL     1      29.581  59.962  57.189  0.00  0.00    +0.000 A 
ATOM     18  C   UNL     1      28.376  60.600  57.414  0.00  0.00    +0.000 A 
ENDBRANCH   1  16
TORSDOF 2
ENDMDL
MODEL 5
REMARK VINA RESULT:      -6.3     14.530     17.148
REMARK  Name = 
REMARK  2 active torsions:
REMARK  status: ('A' for Active; 'I' for Inactive)
REMARK    1  A    between atoms: C_5  and  C_6
REMARK    2  A    between atoms: C_7  and  C_8
REMARK                            x       y       z     vdW  Elec       q    Type
REMARK                         _______ _______ _______ _____ _____    ______ ____
ROOT
ATOM      1  C   UNL     1      31.735  59.815  56.685  0.00  0.00    +0.000 C 
ATOM      2  C   UNL     1      32.622  60.109  55.781  0.00  0.00    +0.000 C 
ENDROOT
BRANCH   2   3
ATOM      3  C   UNL     1      33.842  59.357  55.536  0.00  0.00    +0.000 A 
ATOM      4  C   UNL     1      34.413  59.412  54.281  0.00  0.00    +0.000 A 
ATOM      5  C   UNL     1      35.576  58.707  54.014  0.00  0.00    +0.000 A 
ATOM      6  O   UNL     1      36.164  58.751  52.758  0.00  0.00    +0.000 OA
ATOM      7  C   UNL     1      36.207  57.932  54.971  0.00  0.00    +0.000 A 
ATOM      8  O   UNL     1      37.374  57.221  54.712  0.00  0.00    +0.000 OA
ATOM      9  C   UNL     1      35.622  57.889  56.219  0.00  0.00    +0.000 A 
ATOM     10  O   UNL     1      36.214  57.128  57.210  0.00  0.00    +0.000 OA
ATOM     11  C   UNL     1      34.464  58.584  56.502  0.00  0.00    +0.000 A 
ENDBRANCH   2   3
BRANCH   1  16
ATOM     12  O   UNL     1      26.920  62.663  57.636  0.00  0.00    +0.000 OA
ATOM     13  C   UNL     1      28.114  61.980  57.397  0.00  0.00    +0.000 A 
ATOM     14  C   UNL     1      29.281  62.637  57.066  0.00  0.00    +0.000 A 
ATOM     15  C   UNL     1      30.454  61.948  56.834  0.00  0.00    +0.000 A 
ATOM     16  C   UNL     1      30.516  60.574  56.922  0.00  0.00    +0.000 A 
ATOM     17  C   UNL     1      29.348  59.917  57.255  0.00  0.00    +0.000 A 
ATOM     18  C   UNL     1      28.173  60.606  57.487  0.00  0.00    +0.000 A 
ENDBRANCH   1  16
TORSDOF 2
ENDMDL
MODEL 6
REMARK VINA RESULT:      -6.3     12.609     14.165
REMARK  Name = 
REMARK  2 active torsions:
REMARK  status: ('A' for Active; 'I' for Inactive)
REMARK    1  A    between atoms: C_5  and  C_6
REMARK    2  A    between atoms: C_7  and  C_8
REMARK                            x       y       z     vdW  Elec       q    Type
REMARK                         _______ _______ _______ _____ _____    ______ ____
ROOT
ATOM      1  C   UNL     1      36.309  56.563  56.413  0.00  0.00    +0.000 C 
ATOM      2  C   UNL     1      36.054  56.498  57.686  0.00  0.00    +0.000 C 
ENDROOT
BRANCH   2   3
ATOM      3  C   UNL     1      36.255  55.322  58.517  0.00  0.00    +0.000 A 
ATOM      4  C   UNL     1      35.239  54.928  59.364  0.00  0.00    +0.000 A 
ATOM      5  C   UNL     1      35.399  53.811  60.169  0.00  0.00    +0.000 A 
ATOM      6  O   UNL     1      34.387  53.401  61.026  0.00  0.00    +0.000 OA
ATOM      7  C   UNL     1      36.557  53.054  60.164  0.00  0.00    +0.000 A 
ATOM      8  O   UNL     1      36.725  51.933  60.968  0.00  0.00    +0.000 OA
ATOM      9  C   UNL     1      37.561  53.464  59.311  0.00  0.00    +0.000 A 
ATOM     10  O   UNL     1      38.739  52.741  59.269  0.00  0.00    +0.000 OA
ATOM     11  C   UNL     1      37.420  54.573  58.503  0.00  0.00    +0.000 A 
ENDBRANCH   2   3
BRANCH   1  16
ATOM     12  O   UNL     1      35.399  61.197  53.267  0.00  0.00    +0.000 OA
ATOM     13  C   UNL     1      35.641  60.054  54.030  0.00  0.00    +0.000 A 
ATOM     14  C   UNL     1      36.780  59.293  53.871  0.00  0.00    +0.000 A 
ATOM     15  C   UNL     1      37.005  58.165  54.634  0.00  0.00    +0.000 A 
ATOM     16  C   UNL     1      36.105  57.746  55.589  0.00  0.00    +0.000 A 
ATOM     17  C   UNL     1      34.965  58.508  55.749  0.00  0.00    +0.000 A 
ATOM     18  C   UNL     1      34.739  59.638  54.985  0.00  0.00    +0.000 A 
ENDBRANCH   1  16
TORSDOF 2
ENDMDL
MODEL 7
REMARK VINA RESULT:      -6.2     12.561     14.180
REMARK  Name = 
REMARK  2 active torsions:
REMARK  status: ('A' for Active; 'I' for Inactive)
REMARK    1  A    between atoms: C_5  and  C_6
REMARK    2  A    between atoms: C_7  and  C_8
REMARK                            x       y       z     vdW  Elec       q    Type
REMARK                         _______ _______ _______ _____ _____    ______ ____
ROOT
ATOM      1  C   UNL     1      36.307  56.525  56.526  0.00  0.00    +0.000 C 
ATOM      2  C   UNL     1      36.006  56.472  57.791  0.00  0.00    +0.000 C 
ENDROOT
BRANCH   2   3
ATOM      3  C   UNL     1      36.215  55.318  58.650  0.00  0.00    +0.000 A 
ATOM      4  C   UNL     1      37.419  54.649  58.577  0.00  0.00    +0.000 A 
ATOM      5  C   UNL     1      37.651  53.545  59.382  0.00  0.00    +0.000 A 
ATOM      6  O   UNL     1      38.857  52.860  59.322  0.00  0.00    +0.000 OA
ATOM      7  C   UNL     1      36.708  53.071  60.278  0.00  0.00    +0.000 A 
ATOM      8  O   UNL     1      36.932  51.964  61.088  0.00  0.00    +0.000 OA
ATOM      9  C   UNL     1      35.511  53.753  60.336  0.00  0.00    +0.000 A 
ATOM     10  O   UNL     1      34.536  53.319  61.215  0.00  0.00    +0.000 OA
ATOM     11  C   UNL     1      35.263  54.854  59.542  0.00  0.00    +0.000 A 
ENDBRANCH   2   3
BRANCH   1  16
ATOM     12  O   UNL     1      35.363  61.077  53.273  0.00  0.00    +0.000 OA
ATOM     13  C   UNL     1      35.613  59.954  54.063  0.00  0.00    +0.000 A 
ATOM     14  C   UNL     1      36.729  59.164  53.882  0.00  0.00    +0.000 A 
ATOM     15  C   UNL     1      36.962  58.056  54.671  0.00  0.00    +0.000 A 
ATOM     16  C   UNL     1      36.093  57.686  55.675  0.00  0.00    +0.000 A 
ATOM     17  C   UNL     1      34.977  58.477  55.855  0.00  0.00    +0.000 A 
ATOM     18  C   UNL     1      34.742  59.587  55.066  0.00  0.00    +0.000 A 
ENDBRANCH   1  16
TORSDOF 2
ENDMDL
MODEL 8
REMARK VINA RESULT:      -6.1      9.646     11.215
REMARK  Name = 
REMARK  2 active torsions:
REMARK  status: ('A' for Active; 'I' for Inactive)
REMARK    1  A    between atoms: C_5  and  C_6
REMARK    2  A    between atoms: C_7  and  C_8
REMARK                            x       y       z     vdW  Elec       q    Type
REMARK                         _______ _______ _______ _____ _____    ______ ____
ROOT
ATOM      1  C   UNL     1      39.310  51.754  59.463  0.00  0.00    +0.000 C 
ATOM      2  C   UNL     1      38.624  52.533  58.678  0.00  0.00    +0.000 C 
ENDROOT
BRANCH   2   3
ATOM      3  C   UNL     1      37.192  52.765  58.779  0.00  0.00    +0.000 A 
ATOM      4  C   UNL     1      36.731  54.065  58.789  0.00  0.00    +0.000 A 
ATOM      5  C   UNL     1      35.372  54.320  58.884  0.00  0.00    +0.000 A 
ATOM      6  O   UNL     1      34.891  55.622  58.895  0.00  0.00    +0.000 OA
ATOM      7  C   UNL     1      34.433  53.307  58.971  0.00  0.00    +0.000 A 
ATOM      8  O   UNL     1      33.068  53.554  59.067  0.00  0.00    +0.000 OA
ATOM      9  C   UNL     1      34.913  52.015  58.960  0.00  0.00    +0.000 A 
ATOM     10  O   UNL     1      34.015  50.967  59.045  0.00  0.00    +0.000 OA
ATOM     11  C   UNL     1      36.263  51.742  58.866  0.00  0.00    +0.000 A 
ENDBRANCH   2   3
BRANCH   1  16
ATOM     12  O   UNL     1      44.907  50.974  58.948  0.00  0.00    +0.000 OA
ATOM     13  C   UNL     1      43.529  51.150  59.089  0.00  0.00    +0.000 A 
ATOM     14  C   UNL     1      42.777  50.389  59.959  0.00  0.00    +0.000 A 
ATOM     15  C   UNL     1      41.416  50.576  60.087  0.00  0.00    +0.000 A 
ATOM     16  C   UNL     1      40.744  51.529  59.353  0.00  0.00    +0.000 A 
ATOM     17  C   UNL     1      41.497  52.291  58.483  0.00  0.00    +0.000 A 
ATOM     18  C   UNL     1      42.860  52.105  58.354  0.00  0.00    +0.000 A 
ENDBRANCH   1  16
TORSDOF 2
ENDMDL
MODEL 9
REMARK VINA RESULT:      -6.1      9.673     11.138
REMARK  Name = 
REMARK  2 active torsions:
REMARK  status: ('A' for Active; 'I' for Inactive)
REMARK    1  A    between atoms: C_5  and  C_6
REMARK    2  A    between atoms: C_7  and  C_8
REMARK                            x       y       z     vdW  Elec       q    Type
REMARK                         _______ _______ _______ _____ _____    ______ ____
ROOT
ATOM      1  C   UNL     1      39.309  51.848  59.456  0.00  0.00    +0.000 C 
ATOM      2  C   UNL     1      38.638  52.603  58.637  0.00  0.00    +0.000 C 
ENDROOT
BRANCH   2   3
ATOM      3  C   UNL     1      37.219  52.897  58.748  0.00  0.00    +0.000 A 
ATOM      4  C   UNL     1      36.330  51.845  58.841  0.00  0.00    +0.000 A 
ATOM      5  C   UNL     1      34.971  52.091  58.949  0.00  0.00    +0.000 A 
ATOM      6  O   UNL     1      34.063  51.046  59.044  0.00  0.00    +0.000 OA
ATOM      7  C   UNL     1      34.450  53.374  58.967  0.00  0.00    +0.000 A 
ATOM      8  O   UNL     1      33.087  53.629  59.074  0.00  0.00    +0.000 OA
ATOM      9  C   UNL     1      35.353  54.410  58.873  0.00  0.00    +0.000 A 
ATOM     10  O   UNL     1      34.882  55.711  58.886  0.00  0.00    +0.000 OA
ATOM     11  C   UNL     1      36.710  54.185  58.765  0.00  0.00    +0.000 A 
ENDBRANCH   2   3
BRANCH   1  16
ATOM     12  O   UNL     1      44.862  50.822  58.899  0.00  0.00    +0.000 OA
ATOM     13  C   UNL     1      43.495  51.059  59.050  0.00  0.00    +0.000 A 
ATOM     14  C   UNL     1      42.717  50.329  59.925  0.00  0.00    +0.000 A 
ATOM     15  C   UNL     1      41.366  50.576  60.063  0.00  0.00    +0.000 A 
ATOM     16  C   UNL     1      40.731  51.560  59.336  0.00  0.00    +0.000 A 
ATOM     17  C   UNL     1      41.511  52.290  58.462  0.00  0.00    +0.000 A 
ATOM     18  C   UNL     1      42.864  52.044  58.322  0.00  0.00    +0.000 A 
ENDBRANCH   1  16
TORSDOF 2
ENDMDL
MODEL 10
REMARK VINA RESULT:      -6.0     11.474     13.403
REMARK  Name = 
REMARK  2 active torsions:
REMARK  status: ('A' for Active; 'I' for Inactive)
REMARK    1  A    between atoms: C_5  and  C_6
REMARK    2  A    between atoms: C_7  and  C_8
REMARK                            x       y       z     vdW  Elec       q    Type
REMARK                         _______ _______ _______ _____ _____    ______ ____
ROOT
ATOM      1  C   UNL     1      28.197  56.621  68.189  0.00  0.00    +0.000 C 
ATOM      2  C   UNL     1      28.026  57.414  69.206  0.00  0.00    +0.000 C 
ENDROOT
BRANCH   2   3
ATOM      3  C   UNL     1      27.004  58.443  69.299  0.00  0.00    +0.000 A 
ATOM      4  C   UNL     1      26.029  58.497  68.324  0.00  0.00    +0.000 A 
ATOM      5  C   UNL     1      25.039  59.465  68.382  0.00  0.00    +0.000 A 
ATOM      6  O   UNL     1      24.051  59.533  67.411  0.00  0.00    +0.000 OA
ATOM      7  C   UNL     1      24.982  60.405  69.397  0.00  0.00    +0.000 A 
ATOM      8  O   UNL     1      23.994  61.380  69.463  0.00  0.00    +0.000 OA
ATOM      9  C   UNL     1      25.965  60.335  70.362  0.00  0.00    +0.000 A 
ATOM     10  O   UNL     1      25.952  61.251  71.397  0.00  0.00    +0.000 OA
ATOM     11  C   UNL     1      26.958  59.377  70.320  0.00  0.00    +0.000 A 
ENDBRANCH   2   3
BRANCH   1  16
ATOM     12  O   UNL     1      32.286  52.696  67.927  0.00  0.00    +0.000 OA
ATOM     13  C   UNL     1      31.267  53.649  67.982  0.00  0.00    +0.000 A 
ATOM     14  C   UNL     1      29.999  53.394  67.503  0.00  0.00    +0.000 A 
ATOM     15  C   UNL     1      29.002  54.346  67.565  0.00  0.00    +0.000 A 
ATOM     16  C   UNL     1      29.224  55.593  68.107  0.00  0.00    +0.000 A 
ATOM     17  C   UNL     1      30.493  55.847  68.587  0.00  0.00    +0.000 A 
ATOM     18  C   UNL     1      31.493  54.895  68.526  0.00  0.00    +0.000 A 
ENDBRANCH   1  16
TORSDOF 2
ENDMDL
