REMARK  Name = 
REMARK  7 active torsions:
REMARK  status: ('A' for Active; 'I' for Inactive)
REMARK    1  A    between atoms: C_2  and  O_3
REMARK    2  A    between atoms: O_3  and  C_4
REMARK    3  A    between atoms: C_7  and  C_8
REMARK    4  A    between atoms: C_9  and  C_10
REMARK    5  A    between atoms: C_12  and  O_13
REMARK    6  A    between atoms: C_15  and  O_16
REMARK    7  A    between atoms: C_18  and  O_19
REMARK                            x       y       z     vdW  Elec       q    Type
REMARK                         _______ _______ _______ _____ _____    ______ ____
ROOT
ATOM      1  C   UNL     1       1.375   0.183   0.052  0.00  0.00    +0.000 A 
ATOM      2  C   UNL     1       2.023   1.364   0.346  0.00  0.00    +0.000 A 
ATOM      3  C   UNL     1       3.416   1.365   0.287  0.00  0.00    +0.000 A 
ATOM      4  C   UNL     1       4.143   0.244  -0.049  0.00  0.00    +0.000 A 
ATOM      5  C   UNL     1       3.490  -0.923  -0.339  0.00  0.00    +0.000 A 
ATOM      6  C   UNL     1       2.109  -0.941  -0.285  0.00  0.00    +0.000 A 
ENDROOT
BRANCH   1   8
ATOM      7  C   UNL     1      -0.820  -0.882  -0.145  0.00  0.00    +0.000 C 
ATOM      8  C   UNL     1      -0.082   0.178   0.112  0.00  0.00    +0.000 C 
BRANCH   7  12
ATOM      9  C   UNL     1      -5.085  -0.608   0.110  0.00  0.00    +0.000 A 
ATOM     10  C   UNL     1      -4.297   0.491   0.376  0.00  0.00    +0.000 A 
ATOM     11  C   UNL     1      -2.940   0.360   0.283  0.00  0.00    +0.000 A 
ATOM     12  C   UNL     1      -2.295  -0.808  -0.063  0.00  0.00    +0.000 A 
ATOM     13  C   UNL     1      -3.082  -1.899  -0.327  0.00  0.00    +0.000 A 
ATOM     14  C   UNL     1      -4.476  -1.794  -0.239  0.00  0.00    +0.000 A 
BRANCH   9  15
ATOM     15  O   UNL     1      -6.481  -0.543   0.187  0.00  0.00    +0.000 OA
BRANCH  15  17
ATOM     16  C   UNL     1      -6.842   1.742  -0.449  0.00  0.00    +0.000 C 
ATOM     17  C   UNL     1      -7.158   0.640   0.537  0.00  0.00    +0.000 C 
ENDBRANCH  15  17
ENDBRANCH   9  15
ENDBRANCH   7  12
ENDBRANCH   1   8
BRANCH   3  18
ATOM     18  O   UNL     1       4.111   2.524   0.574  0.00  0.00    +0.000 OA
ATOM     19  C   UNL     1       3.490   3.737   0.930  0.00  0.00    +0.000 C 
ENDBRANCH   3  18
BRANCH   4  20
ATOM     20  O   UNL     1       5.542   0.270  -0.101  0.00  0.00    +0.000 OA
ATOM     21  C   UNL     1       6.140   0.618  -1.357  0.00  0.00    +0.000 C 
ENDBRANCH   4  20
BRANCH   5  22
ATOM     22  O   UNL     1       4.208  -2.061  -0.679  0.00  0.00    +0.000 OA
ATOM     23  C   UNL     1       3.510  -3.258  -0.976  0.00  0.00    +0.000 C 
ENDBRANCH   5  22
TORSDOF 7
