REMARK  Name = 
REMARK  2 active torsions:
REMARK  status: ('A' for Active; 'I' for Inactive)
REMARK    1  A    between atoms: C_7  and  C_8
REMARK    2  A    between atoms: C_9  and  C_10
REMARK                            x       y       z     vdW  Elec       q    Type
REMARK                         _______ _______ _______ _____ _____    ______ ____
ROOT
ATOM      1  C   UNL     1       0.504   0.492  -0.241  0.00  0.00    +0.000 C 
ATOM      2  C   UNL     1      -0.299  -0.477   0.082  0.00  0.00    +0.000 C 
ENDROOT
BRANCH   1   9
ATOM      3  O   UNL     1       4.824   2.437  -1.150  0.00  0.00    +0.000 OA
ATOM      4  C   UNL     1       4.070   1.326  -0.796  0.00  0.00    +0.000 A 
ATOM      5  C   UNL     1       4.648   0.095  -0.541  0.00  0.00    +0.000 A 
ATOM      6  C   UNL     1       3.899  -1.010  -0.189  0.00  0.00    +0.000 A 
ATOM      7  O   UNL     1       4.549  -2.207   0.051  0.00  0.00    +0.000 OA
ATOM      8  C   UNL     1       2.532  -0.848  -0.098  0.00  0.00    +0.000 A 
ATOM      9  C   UNL     1       1.942   0.374  -0.350  0.00  0.00    +0.000 A 
ATOM     10  C   UNL     1       2.714   1.447  -0.696  0.00  0.00    +0.000 A 
ENDBRANCH   1   9
BRANCH   2  11
ATOM     11  C   UNL     1      -1.738  -0.277   0.170  0.00  0.00    +0.000 A 
ATOM     12  C   UNL     1      -2.244   0.975  -0.098  0.00  0.00    +0.000 A 
ATOM     13  C   UNL     1      -3.612   1.251  -0.036  0.00  0.00    +0.000 A 
ATOM     14  C   UNL     1      -4.465   0.237   0.303  0.00  0.00    +0.000 A 
ATOM     15  O   UNL     1      -5.822   0.501   0.367  0.00  0.00    +0.000 OA
ATOM     16  C   UNL     1      -3.991  -1.024   0.577  0.00  0.00    +0.000 A 
ATOM     17  O   UNL     1      -4.892  -2.024   0.916  0.00  0.00    +0.000 OA
ATOM     18  C   UNL     1      -2.616  -1.267   0.505  0.00  0.00    +0.000 A 
ENDBRANCH   2  11
TORSDOF 2
