MODEL 1
REMARK VINA RESULT:      -6.0      0.000      0.000
REMARK  Name = 
REMARK  7 active torsions:
REMARK  status: ('A' for Active; 'I' for Inactive)
REMARK    1  A    between atoms: C_2  and  O_3
REMARK    2  A    between atoms: O_3  and  C_4
REMARK    3  A    between atoms: C_7  and  C_8
REMARK    4  A    between atoms: C_9  and  C_10
REMARK    5  A    between atoms: C_12  and  O_13
REMARK    6  A    between atoms: C_15  and  O_16
REMARK    7  A    between atoms: C_18  and  O_19
REMARK                            x       y       z     vdW  Elec       q    Type
REMARK                         _______ _______ _______ _____ _____    ______ ____
ROOT
ATOM      1  C   UNL     1      36.572  54.525  58.357  0.00  0.00    +0.000 A 
ATOM      2  C   UNL     1      35.817  53.372  58.404  0.00  0.00    +0.000 A 
ATOM      3  C   UNL     1      36.453  52.203  58.821  0.00  0.00    +0.000 A 
ATOM      4  C   UNL     1      37.783  52.172  59.178  0.00  0.00    +0.000 A 
ATOM      5  C   UNL     1      38.524  53.322  59.128  0.00  0.00    +0.000 A 
ATOM      6  C   UNL     1      37.908  54.489  58.717  0.00  0.00    +0.000 A 
ENDROOT
BRANCH   1   8
ATOM      7  C   UNL     1      36.316  56.476  56.901  0.00  0.00    +0.000 C 
ATOM      8  C   UNL     1      35.911  55.749  57.923  0.00  0.00    +0.000 C 
BRANCH   7  12
ATOM      9  C   UNL     1      34.196  60.046  55.859  0.00  0.00    +0.000 A 
ATOM     10  C   UNL     1      34.154  59.559  57.148  0.00  0.00    +0.000 A 
ATOM     11  C   UNL     1      34.845  58.416  57.438  0.00  0.00    +0.000 A 
ATOM     12  C   UNL     1      35.591  57.708  56.521  0.00  0.00    +0.000 A 
ATOM     13  C   UNL     1      35.631  58.195  55.241  0.00  0.00    +0.000 A 
ATOM     14  C   UNL     1      34.932  59.364  54.915  0.00  0.00    +0.000 A 
BRANCH   9  15
ATOM     15  O   UNL     1      33.511  61.211  55.495  0.00  0.00    +0.000 OA
BRANCH  15  17
ATOM     16  C   UNL     1      31.310  60.430  54.948  0.00  0.00    +0.000 C 
ATOM     17  C   UNL     1      32.142  61.392  55.765  0.00  0.00    +0.000 C 
ENDBRANCH  15  17
ENDBRANCH   9  15
ENDBRANCH   7  12
ENDBRANCH   1   8
BRANCH   3  18
ATOM     18  O   UNL     1      35.739  51.022  58.884  0.00  0.00    +0.000 OA
ATOM     19  C   UNL     1      34.811  50.726  59.901  0.00  0.00    +0.000 C 
ENDBRANCH   3  18
BRANCH   4  20
ATOM     20  O   UNL     1      38.400  50.985  59.593  0.00  0.00    +0.000 OA
ATOM     21  C   UNL     1      38.409  50.715  61.001  0.00  0.00    +0.000 C 
ENDBRANCH   4  20
BRANCH   5  22
ATOM     22  O   UNL     1      39.865  53.306  59.484  0.00  0.00    +0.000 OA
ATOM     23  C   UNL     1      40.306  54.117  60.560  0.00  0.00    +0.000 C 
ENDBRANCH   5  22
TORSDOF 7
ENDMDL
MODEL 2
REMARK VINA RESULT:      -5.9      0.653      2.812
REMARK  Name = 
REMARK  7 active torsions:
REMARK  status: ('A' for Active; 'I' for Inactive)
REMARK    1  A    between atoms: C_2  and  O_3
REMARK    2  A    between atoms: O_3  and  C_4
REMARK    3  A    between atoms: C_7  and  C_8
REMARK    4  A    between atoms: C_9  and  C_10
REMARK    5  A    between atoms: C_12  and  O_13
REMARK    6  A    between atoms: C_15  and  O_16
REMARK    7  A    between atoms: C_18  and  O_19
REMARK                            x       y       z     vdW  Elec       q    Type
REMARK                         _______ _______ _______ _____ _____    ______ ____
ROOT
ATOM      1  C   UNL     1      36.700  54.484  58.598  0.00  0.00    +0.000 A 
ATOM      2  C   UNL     1      37.958  54.722  59.109  0.00  0.00    +0.000 A 
ATOM      3  C   UNL     1      38.623  53.651  59.705  0.00  0.00    +0.000 A 
ATOM      4  C   UNL     1      38.068  52.393  59.794  0.00  0.00    +0.000 A 
ATOM      5  C   UNL     1      36.818  52.168  59.284  0.00  0.00    +0.000 A 
ATOM      6  C   UNL     1      36.145  53.219  58.690  0.00  0.00    +0.000 A 
ENDROOT
BRANCH   1   8
ATOM      7  C   UNL     1      36.489  56.297  56.967  0.00  0.00    +0.000 C 
ATOM      8  C   UNL     1      36.001  55.602  57.973  0.00  0.00    +0.000 C 
BRANCH   7  12
ATOM      9  C   UNL     1      34.296  59.540  55.234  0.00  0.00    +0.000 A 
ATOM     10  C   UNL     1      35.288  58.906  54.518  0.00  0.00    +0.000 A 
ATOM     11  C   UNL     1      35.964  57.875  55.109  0.00  0.00    +0.000 A 
ATOM     12  C   UNL     1      35.719  57.419  56.386  0.00  0.00    +0.000 A 
ATOM     13  C   UNL     1      34.732  58.052  57.095  0.00  0.00    +0.000 A 
ATOM     14  C   UNL     1      34.023  59.111  56.515  0.00  0.00    +0.000 A 
BRANCH   9  15
ATOM     15  O   UNL     1      33.565  60.602  54.689  0.00  0.00    +0.000 OA
BRANCH  15  17
ATOM     16  C   UNL     1      31.184  60.381  54.881  0.00  0.00    +0.000 C 
ATOM     17  C   UNL     1      32.423  61.128  55.320  0.00  0.00    +0.000 C 
ENDBRANCH  15  17
ENDBRANCH   9  15
ENDBRANCH   7  12
ENDBRANCH   1   8
BRANCH   3  18
ATOM     18  O   UNL     1      39.886  53.838  60.232  0.00  0.00    +0.000 OA
ATOM     19  C   UNL     1      40.135  54.544  61.425  0.00  0.00    +0.000 C 
ENDBRANCH   3  18
BRANCH   4  20
ATOM     20  O   UNL     1      38.755  51.333  60.398  0.00  0.00    +0.000 OA
ATOM     21  C   UNL     1      38.540  51.134  61.802  0.00  0.00    +0.000 C 
ENDBRANCH   4  20
BRANCH   5  22
ATOM     22  O   UNL     1      36.244  50.907  59.367  0.00  0.00    +0.000 OA
ATOM     23  C   UNL     1      35.034  50.741  60.085  0.00  0.00    +0.000 C 
ENDBRANCH   5  22
TORSDOF 7
ENDMDL
MODEL 3
REMARK VINA RESULT:      -5.7      3.927      9.714
REMARK  Name = 
REMARK  7 active torsions:
REMARK  status: ('A' for Active; 'I' for Inactive)
REMARK    1  A    between atoms: C_2  and  O_3
REMARK    2  A    between atoms: O_3  and  C_4
REMARK    3  A    between atoms: C_7  and  C_8
REMARK    4  A    between atoms: C_9  and  C_10
REMARK    5  A    between atoms: C_12  and  O_13
REMARK    6  A    between atoms: C_15  and  O_16
REMARK    7  A    between atoms: C_18  and  O_19
REMARK                            x       y       z     vdW  Elec       q    Type
REMARK                         _______ _______ _______ _____ _____    ______ ____
ROOT
ATOM      1  C   UNL     1      37.928  51.603  59.359  0.00  0.00    +0.000 A 
ATOM      2  C   UNL     1      37.663  52.776  58.685  0.00  0.00    +0.000 A 
ATOM      3  C   UNL     1      36.326  53.116  58.489  0.00  0.00    +0.000 A 
ATOM      4  C   UNL     1      35.288  52.330  58.939  0.00  0.00    +0.000 A 
ATOM      5  C   UNL     1      35.562  51.167  59.607  0.00  0.00    +0.000 A 
ATOM      6  C   UNL     1      36.883  50.815  59.811  0.00  0.00    +0.000 A 
ENDROOT
BRANCH   1   8
ATOM      7  C   UNL     1      40.338  51.978  59.155  0.00  0.00    +0.000 C 
ATOM      8  C   UNL     1      39.326  51.243  59.567  0.00  0.00    +0.000 C 
BRANCH   7  12
ATOM      9  C   UNL     1      44.354  50.714  59.936  0.00  0.00    +0.000 A 
ATOM     10  C   UNL     1      43.399  50.659  60.928  0.00  0.00    +0.000 A 
ATOM     11  C   UNL     1      42.129  51.073  60.636  0.00  0.00    +0.000 A 
ATOM     12  C   UNL     1      41.731  51.546  59.404  0.00  0.00    +0.000 A 
ATOM     13  C   UNL     1      42.683  51.598  58.420  0.00  0.00    +0.000 A 
ATOM     14  C   UNL     1      43.993  51.182  58.691  0.00  0.00    +0.000 A 
BRANCH   9  15
ATOM     15  O   UNL     1      45.673  50.307  60.167  0.00  0.00    +0.000 OA
BRANCH  15  17
ATOM     16  C   UNL     1      47.155  51.926  61.136  0.00  0.00    +0.000 C 
ATOM     17  C   UNL     1      46.368  50.651  61.341  0.00  0.00    +0.000 C 
ENDBRANCH  15  17
ENDBRANCH   9  15
ENDBRANCH   7  12
ENDBRANCH   1   8
BRANCH   3  18
ATOM     18  O   UNL     1      36.009  54.282  57.818  0.00  0.00    +0.000 OA
ATOM     19  C   UNL     1      36.469  55.555  58.207  0.00  0.00    +0.000 C 
ENDBRANCH   3  18
BRANCH   4  20
ATOM     20  O   UNL     1      33.952  52.693  58.729  0.00  0.00    +0.000 OA
ATOM     21  C   UNL     1      33.405  53.691  59.601  0.00  0.00    +0.000 C 
ENDBRANCH   4  20
BRANCH   5  22
ATOM     22  O   UNL     1      34.528  50.364  60.068  0.00  0.00    +0.000 OA
ATOM     23  C   UNL     1      34.667  49.701  61.312  0.00  0.00    +0.000 C 
ENDBRANCH   5  22
TORSDOF 7
ENDMDL
MODEL 4
REMARK VINA RESULT:      -5.7      1.589      3.256
REMARK  Name = 
REMARK  7 active torsions:
REMARK  status: ('A' for Active; 'I' for Inactive)
REMARK    1  A    between atoms: C_2  and  O_3
REMARK    2  A    between atoms: O_3  and  C_4
REMARK    3  A    between atoms: C_7  and  C_8
REMARK    4  A    between atoms: C_9  and  C_10
REMARK    5  A    between atoms: C_12  and  O_13
REMARK    6  A    between atoms: C_15  and  O_16
REMARK    7  A    between atoms: C_18  and  O_19
REMARK                            x       y       z     vdW  Elec       q    Type
REMARK                         _______ _______ _______ _____ _____    ______ ____
ROOT
ATOM      1  C   UNL     1      36.533  55.006  58.360  0.00  0.00    +0.000 A 
ATOM      2  C   UNL     1      37.835  54.782  58.754  0.00  0.00    +0.000 A 
ATOM      3  C   UNL     1      38.086  53.653  59.533  0.00  0.00    +0.000 A 
ATOM      4  C   UNL     1      37.090  52.779  59.911  0.00  0.00    +0.000 A 
ATOM      5  C   UNL     1      35.801  53.010  59.515  0.00  0.00    +0.000 A 
ATOM      6  C   UNL     1      35.536  54.125  58.741  0.00  0.00    +0.000 A 
ENDROOT
BRANCH   1   8
ATOM      7  C   UNL     1      36.447  56.226  56.240  0.00  0.00    +0.000 C 
ATOM      8  C   UNL     1      36.266  56.184  57.544  0.00  0.00    +0.000 C 
BRANCH   7  12
ATOM      9  C   UNL     1      35.549  59.810  54.077  0.00  0.00    +0.000 A 
ATOM     10  C   UNL     1      34.761  59.418  55.138  0.00  0.00    +0.000 A 
ATOM     11  C   UNL     1      35.083  58.267  55.801  0.00  0.00    +0.000 A 
ATOM     12  C   UNL     1      36.154  57.461  55.480  0.00  0.00    +0.000 A 
ATOM     13  C   UNL     1      36.935  57.854  54.425  0.00  0.00    +0.000 A 
ATOM     14  C   UNL     1      36.628  59.029  53.726  0.00  0.00    +0.000 A 
BRANCH   9  15
ATOM     15  O   UNL     1      35.275  60.977  53.355  0.00  0.00    +0.000 OA
BRANCH  15  17
ATOM     16  C   UNL     1      36.537  62.695  54.456  0.00  0.00    +0.000 C 
ATOM     17  C   UNL     1      35.179  62.237  53.974  0.00  0.00    +0.000 C 
ENDBRANCH  15  17
ENDBRANCH   9  15
ENDBRANCH   7  12
ENDBRANCH   1   8
BRANCH   3  18
ATOM     18  O   UNL     1      39.374  53.386  59.954  0.00  0.00    +0.000 OA
ATOM     19  C   UNL     1      40.086  54.204  60.853  0.00  0.00    +0.000 C 
ENDBRANCH   3  18
BRANCH   4  20
ATOM     20  O   UNL     1      37.367  51.652  60.695  0.00  0.00    +0.000 OA
ATOM     21  C   UNL     1      37.734  50.452  60.002  0.00  0.00    +0.000 C 
ENDBRANCH   4  20
BRANCH   5  22
ATOM     22  O   UNL     1      34.787  52.139  59.887  0.00  0.00    +0.000 OA
ATOM     23  C   UNL     1      33.912  51.630  58.896  0.00  0.00    +0.000 C 
ENDBRANCH   5  22
TORSDOF 7
ENDMDL
MODEL 5
REMARK VINA RESULT:      -5.7      2.907      8.661
REMARK  Name = 
REMARK  7 active torsions:
REMARK  status: ('A' for Active; 'I' for Inactive)
REMARK    1  A    between atoms: C_2  and  O_3
REMARK    2  A    between atoms: O_3  and  C_4
REMARK    3  A    between atoms: C_7  and  C_8
REMARK    4  A    between atoms: C_9  and  C_10
REMARK    5  A    between atoms: C_12  and  O_13
REMARK    6  A    between atoms: C_15  and  O_16
REMARK    7  A    between atoms: C_18  and  O_19
REMARK                            x       y       z     vdW  Elec       q    Type
REMARK                         _______ _______ _______ _____ _____    ______ ____
ROOT
ATOM      1  C   UNL     1      36.296  56.851  57.074  0.00  0.00    +0.000 A 
ATOM      2  C   UNL     1      36.462  57.879  57.978  0.00  0.00    +0.000 A 
ATOM      3  C   UNL     1      36.763  59.141  57.467  0.00  0.00    +0.000 A 
ATOM      4  C   UNL     1      36.894  59.380  56.116  0.00  0.00    +0.000 A 
ATOM      5  C   UNL     1      36.727  58.353  55.229  0.00  0.00    +0.000 A 
ATOM      6  C   UNL     1      36.429  57.095  55.719  0.00  0.00    +0.000 A 
ENDROOT
BRANCH   1   8
ATOM      7  C   UNL     1      35.830  55.274  58.888  0.00  0.00    +0.000 C 
ATOM      8  C   UNL     1      35.980  55.529  57.605  0.00  0.00    +0.000 C 
BRANCH   7  12
ATOM      9  C   UNL     1      34.909  51.292  60.164  0.00  0.00    +0.000 A 
ATOM     10  C   UNL     1      35.148  51.562  58.833  0.00  0.00    +0.000 A 
ATOM     11  C   UNL     1      35.438  52.847  58.469  0.00  0.00    +0.000 A 
ATOM     12  C   UNL     1      35.511  53.905  59.349  0.00  0.00    +0.000 A 
ATOM     13  C   UNL     1      35.273  53.633  60.671  0.00  0.00    +0.000 A 
ATOM     14  C   UNL     1      34.972  52.326  61.073  0.00  0.00    +0.000 A 
BRANCH   9  15
ATOM     15  O   UNL     1      34.605  49.999  60.605  0.00  0.00    +0.000 OA
BRANCH  15  17
ATOM     16  C   UNL     1      36.662  48.977  61.298  0.00  0.00    +0.000 C 
ATOM     17  C   UNL     1      35.267  49.405  61.695  0.00  0.00    +0.000 C 
ENDBRANCH  15  17
ENDBRANCH   9  15
ENDBRANCH   7  12
ENDBRANCH   1   8
BRANCH   3  18
ATOM     18  O   UNL     1      36.940  60.204  58.332  0.00  0.00    +0.000 OA
ATOM     19  C   UNL     1      35.914  60.728  59.142  0.00  0.00    +0.000 C 
ENDBRANCH   3  18
BRANCH   4  20
ATOM     20  O   UNL     1      37.197  60.657  55.628  0.00  0.00    +0.000 OA
ATOM     21  C   UNL     1      36.097  61.553  55.423  0.00  0.00    +0.000 C 
ENDBRANCH   4  20
BRANCH   5  22
ATOM     22  O   UNL     1      36.857  58.577  53.865  0.00  0.00    +0.000 OA
ATOM     23  C   UNL     1      35.691  58.712  53.071  0.00  0.00    +0.000 C 
ENDBRANCH   5  22
TORSDOF 7
ENDMDL
MODEL 6
REMARK VINA RESULT:      -5.7      2.923      8.527
REMARK  Name = 
REMARK  7 active torsions:
REMARK  status: ('A' for Active; 'I' for Inactive)
REMARK    1  A    between atoms: C_2  and  O_3
REMARK    2  A    between atoms: O_3  and  C_4
REMARK    3  A    between atoms: C_7  and  C_8
REMARK    4  A    between atoms: C_9  and  C_10
REMARK    5  A    between atoms: C_12  and  O_13
REMARK    6  A    between atoms: C_15  and  O_16
REMARK    7  A    between atoms: C_18  and  O_19
REMARK                            x       y       z     vdW  Elec       q    Type
REMARK                         _______ _______ _______ _____ _____    ______ ____
ROOT
ATOM      1  C   UNL     1      36.270  56.929  57.174  0.00  0.00    +0.000 A 
ATOM      2  C   UNL     1      36.398  57.058  55.807  0.00  0.00    +0.000 A 
ATOM      3  C   UNL     1      36.796  58.299  55.313  0.00  0.00    +0.000 A 
ATOM      4  C   UNL     1      37.059  59.373  56.135  0.00  0.00    +0.000 A 
ATOM      5  C   UNL     1      36.929  59.234  57.490  0.00  0.00    +0.000 A 
ATOM      6  C   UNL     1      36.535  58.010  57.997  0.00  0.00    +0.000 A 
ENDROOT
BRANCH   1   8
ATOM      7  C   UNL     1      36.348  55.092  58.790  0.00  0.00    +0.000 C 
ATOM      8  C   UNL     1      35.854  55.632  57.695  0.00  0.00    +0.000 C 
BRANCH   7  12
ATOM      9  C   UNL     1      34.986  51.243  60.079  0.00  0.00    +0.000 A 
ATOM     10  C   UNL     1      35.419  51.433  58.784  0.00  0.00    +0.000 A 
ATOM     11  C   UNL     1      35.845  52.678  58.414  0.00  0.00    +0.000 A 
ATOM     12  C   UNL     1      35.874  53.770  59.255  0.00  0.00    +0.000 A 
ATOM     13  C   UNL     1      35.443  53.577  60.542  0.00  0.00    +0.000 A 
ATOM     14  C   UNL     1      35.000  52.312  60.949  0.00  0.00    +0.000 A 
BRANCH   9  15
ATOM     15  O   UNL     1      34.536  49.994  60.523  0.00  0.00    +0.000 OA
BRANCH  15  17
ATOM     16  C   UNL     1      36.177  48.801  61.803  0.00  0.00    +0.000 C 
ATOM     17  C   UNL     1      34.838  49.502  61.807  0.00  0.00    +0.000 C 
ENDBRANCH  15  17
ENDBRANCH   9  15
ENDBRANCH   7  12
ENDBRANCH   1   8
BRANCH   3  18
ATOM     18  O   UNL     1      36.937  58.479  53.951  0.00  0.00    +0.000 OA
ATOM     19  C   UNL     1      35.856  58.713  53.079  0.00  0.00    +0.000 C 
ENDBRANCH   3  18
BRANCH   4  20
ATOM     20  O   UNL     1      37.458  60.610  55.615  0.00  0.00    +0.000 OA
ATOM     21  C   UNL     1      36.427  61.577  55.374  0.00  0.00    +0.000 C 
ENDBRANCH   4  20
BRANCH   5  22
ATOM     22  O   UNL     1      37.190  60.306  58.332  0.00  0.00    +0.000 OA
ATOM     23  C   UNL     1      36.432  60.456  59.520  0.00  0.00    +0.000 C 
ENDBRANCH   5  22
TORSDOF 7
ENDMDL
MODEL 7
REMARK VINA RESULT:      -5.7      1.672      8.860
REMARK  Name = 
REMARK  7 active torsions:
REMARK  status: ('A' for Active; 'I' for Inactive)
REMARK    1  A    between atoms: C_2  and  O_3
REMARK    2  A    between atoms: O_3  and  C_4
REMARK    3  A    between atoms: C_7  and  C_8
REMARK    4  A    between atoms: C_9  and  C_10
REMARK    5  A    between atoms: C_12  and  O_13
REMARK    6  A    between atoms: C_15  and  O_16
REMARK    7  A    between atoms: C_18  and  O_19
REMARK                            x       y       z     vdW  Elec       q    Type
REMARK                         _______ _______ _______ _____ _____    ______ ____
ROOT
ATOM      1  C   UNL     1      35.764  57.242  56.815  0.00  0.00    +0.000 A 
ATOM      2  C   UNL     1      34.740  57.842  57.516  0.00  0.00    +0.000 A 
ATOM      3  C   UNL     1      33.957  58.776  56.839  0.00  0.00    +0.000 A 
ATOM      4  C   UNL     1      34.175  59.105  55.519  0.00  0.00    +0.000 A 
ATOM      5  C   UNL     1      35.193  58.504  54.831  0.00  0.00    +0.000 A 
ATOM      6  C   UNL     1      35.979  57.576  55.489  0.00  0.00    +0.000 A 
ENDROOT
BRANCH   1   8
ATOM      7  C   UNL     1      36.098  55.195  58.115  0.00  0.00    +0.000 C 
ATOM      8  C   UNL     1      36.585  56.264  57.520  0.00  0.00    +0.000 C 
BRANCH   7  12
ATOM      9  C   UNL     1      38.668  52.408  60.103  0.00  0.00    +0.000 A 
ATOM     10  C   UNL     1      37.678  51.962  59.254  0.00  0.00    +0.000 A 
ATOM     11  C   UNL     1      36.880  52.886  58.640  0.00  0.00    +0.000 A 
ATOM     12  C   UNL     1      36.996  54.249  58.811  0.00  0.00    +0.000 A 
ATOM     13  C   UNL     1      37.982  54.688  59.656  0.00  0.00    +0.000 A 
ATOM     14  C   UNL     1      38.815  53.764  60.300  0.00  0.00    +0.000 A 
BRANCH   9  15
ATOM     15  O   UNL     1      39.520  51.516  60.765  0.00  0.00    +0.000 OA
BRANCH  15  17
ATOM     16  C   UNL     1      41.499  51.364  59.417  0.00  0.00    +0.000 C 
ATOM     17  C   UNL     1      40.355  50.621  60.070  0.00  0.00    +0.000 C 
ENDBRANCH  15  17
ENDBRANCH   9  15
ENDBRANCH   7  12
ENDBRANCH   1   8
BRANCH   3  18
ATOM     18  O   UNL     1      32.920  59.405  57.499  0.00  0.00    +0.000 OA
ATOM     19  C   UNL     1      33.100  60.226  58.630  0.00  0.00    +0.000 C 
ENDBRANCH   3  18
BRANCH   4  20
ATOM     20  O   UNL     1      33.375  60.047  54.860  0.00  0.00    +0.000 OA
ATOM     21  C   UNL     1      33.782  61.419  54.943  0.00  0.00    +0.000 C 
ENDBRANCH   4  20
BRANCH   5  22
ATOM     22  O   UNL     1      35.426  58.825  53.501  0.00  0.00    +0.000 OA
ATOM     23  C   UNL     1      36.757  59.033  53.061  0.00  0.00    +0.000 C 
ENDBRANCH   5  22
TORSDOF 7
ENDMDL
MODEL 8
REMARK VINA RESULT:      -5.6      1.513      1.676
REMARK  Name = 
REMARK  7 active torsions:
REMARK  status: ('A' for Active; 'I' for Inactive)
REMARK    1  A    between atoms: C_2  and  O_3
REMARK    2  A    between atoms: O_3  and  C_4
REMARK    3  A    between atoms: C_7  and  C_8
REMARK    4  A    between atoms: C_9  and  C_10
REMARK    5  A    between atoms: C_12  and  O_13
REMARK    6  A    between atoms: C_15  and  O_16
REMARK    7  A    between atoms: C_18  and  O_19
REMARK                            x       y       z     vdW  Elec       q    Type
REMARK                         _______ _______ _______ _____ _____    ______ ____
ROOT
ATOM      1  C   UNL     1      37.354  53.994  58.836  0.00  0.00    +0.000 A 
ATOM      2  C   UNL     1      36.713  53.649  60.007  0.00  0.00    +0.000 A 
ATOM      3  C   UNL     1      37.327  52.697  60.820  0.00  0.00    +0.000 A 
ATOM      4  C   UNL     1      38.528  52.107  60.492  0.00  0.00    +0.000 A 
ATOM      5  C   UNL     1      39.156  52.457  59.327  0.00  0.00    +0.000 A 
ATOM      6  C   UNL     1      38.560  53.399  58.510  0.00  0.00    +0.000 A 
ENDROOT
BRANCH   1   8
ATOM      7  C   UNL     1      36.336  56.178  58.405  0.00  0.00    +0.000 C 
ATOM      8  C   UNL     1      36.715  54.989  57.983  0.00  0.00    +0.000 C 
BRANCH   7  12
ATOM      9  C   UNL     1      34.436  58.962  55.766  0.00  0.00    +0.000 A 
ATOM     10  C   UNL     1      34.004  58.827  57.068  0.00  0.00    +0.000 A 
ATOM     11  C   UNL     1      34.639  57.927  57.877  0.00  0.00    +0.000 A 
ATOM     12  C   UNL     1      35.694  57.134  57.478  0.00  0.00    +0.000 A 
ATOM     13  C   UNL     1      36.120  57.271  56.182  0.00  0.00    +0.000 A 
ATOM     14  C   UNL     1      35.488  58.186  55.331  0.00  0.00    +0.000 A 
BRANCH   9  15
ATOM     15  O   UNL     1      33.830  59.865  54.885  0.00  0.00    +0.000 OA
BRANCH  15  17
ATOM     16  C   UNL     1      31.476  60.327  54.881  0.00  0.00    +0.000 C 
ATOM     17  C   UNL     1      32.852  60.784  55.308  0.00  0.00    +0.000 C 
ENDBRANCH  15  17
ENDBRANCH   9  15
ENDBRANCH   7  12
ENDBRANCH   1   8
BRANCH   3  18
ATOM     18  O   UNL     1      36.723  52.318  62.004  0.00  0.00    +0.000 OA
ATOM     19  C   UNL     1      35.355  52.000  62.113  0.00  0.00    +0.000 C 
ENDBRANCH   3  18
BRANCH   4  20
ATOM     20  O   UNL     1      39.124  51.154  61.325  0.00  0.00    +0.000 OA
ATOM     21  C   UNL     1      38.766  49.783  61.105  0.00  0.00    +0.000 C 
ENDBRANCH   4  20
BRANCH   5  22
ATOM     22  O   UNL     1      40.366  51.872  58.982  0.00  0.00    +0.000 OA
ATOM     23  C   UNL     1      41.251  52.567  58.120  0.00  0.00    +0.000 C 
ENDBRANCH   5  22
TORSDOF 7
ENDMDL
MODEL 9
REMARK VINA RESULT:      -5.6      1.726      8.967
REMARK  Name = 
REMARK  7 active torsions:
REMARK  status: ('A' for Active; 'I' for Inactive)
REMARK    1  A    between atoms: C_2  and  O_3
REMARK    2  A    between atoms: O_3  and  C_4
REMARK    3  A    between atoms: C_7  and  C_8
REMARK    4  A    between atoms: C_9  and  C_10
REMARK    5  A    between atoms: C_12  and  O_13
REMARK    6  A    between atoms: C_15  and  O_16
REMARK    7  A    between atoms: C_18  and  O_19
REMARK                            x       y       z     vdW  Elec       q    Type
REMARK                         _______ _______ _______ _____ _____    ______ ____
ROOT
ATOM      1  C   UNL     1      35.757  57.229  57.022  0.00  0.00    +0.000 A 
ATOM      2  C   UNL     1      36.066  57.409  55.690  0.00  0.00    +0.000 A 
ATOM      3  C   UNL     1      35.302  58.329  54.972  0.00  0.00    +0.000 A 
ATOM      4  C   UNL     1      34.273  59.043  55.544  0.00  0.00    +0.000 A 
ATOM      5  C   UNL     1      33.975  58.857  56.867  0.00  0.00    +0.000 A 
ATOM      6  C   UNL     1      34.722  57.949  57.593  0.00  0.00    +0.000 A 
ENDROOT
BRANCH   1   8
ATOM      7  C   UNL     1      36.196  55.017  57.973  0.00  0.00    +0.000 C 
ATOM      8  C   UNL     1      36.554  56.269  57.777  0.00  0.00    +0.000 C 
BRANCH   7  12
ATOM      9  C   UNL     1      38.661  52.321  60.205  0.00  0.00    +0.000 A 
ATOM     10  C   UNL     1      37.635  51.842  59.420  0.00  0.00    +0.000 A 
ATOM     11  C   UNL     1      36.872  52.737  58.724  0.00  0.00    +0.000 A 
ATOM     12  C   UNL     1      37.059  54.102  58.751  0.00  0.00    +0.000 A 
ATOM     13  C   UNL     1      38.081  54.575  59.533  0.00  0.00    +0.000 A 
ATOM     14  C   UNL     1      38.879  53.680  60.258  0.00  0.00    +0.000 A 
BRANCH   9  15
ATOM     15  O   UNL     1      39.480  51.459  60.944  0.00  0.00    +0.000 OA
BRANCH  15  17
ATOM     16  C   UNL     1      41.575  51.063  59.844  0.00  0.00    +0.000 C 
ATOM     17  C   UNL     1      40.870  51.651  61.046  0.00  0.00    +0.000 C 
ENDBRANCH  15  17
ENDBRANCH   9  15
ENDBRANCH   7  12
ENDBRANCH   1   8
BRANCH   3  18
ATOM     18  O   UNL     1      35.573  58.544  53.634  0.00  0.00    +0.000 OA
ATOM     19  C   UNL     1      36.793  59.062  53.159  0.00  0.00    +0.000 C 
ENDBRANCH   3  18
BRANCH   4  20
ATOM     20  O   UNL     1      33.520  59.961  54.802  0.00  0.00    +0.000 OA
ATOM     21  C   UNL     1      33.958  61.326  54.818  0.00  0.00    +0.000 C 
ENDBRANCH   4  20
BRANCH   5  22
ATOM     22  O   UNL     1      32.940  59.568  57.458  0.00  0.00    +0.000 OA
ATOM     23  C   UNL     1      33.041  59.931  58.824  0.00  0.00    +0.000 C 
ENDBRANCH   5  22
TORSDOF 7
ENDMDL
MODEL 10
REMARK VINA RESULT:      -5.6      3.652      9.511
REMARK  Name = 
REMARK  7 active torsions:
REMARK  status: ('A' for Active; 'I' for Inactive)
REMARK    1  A    between atoms: C_2  and  O_3
REMARK    2  A    between atoms: O_3  and  C_4
REMARK    3  A    between atoms: C_7  and  C_8
REMARK    4  A    between atoms: C_9  and  C_10
REMARK    5  A    between atoms: C_12  and  O_13
REMARK    6  A    between atoms: C_15  and  O_16
REMARK    7  A    between atoms: C_18  and  O_19
REMARK                            x       y       z     vdW  Elec       q    Type
REMARK                         _______ _______ _______ _____ _____    ______ ____
ROOT
ATOM      1  C   UNL     1      38.143  52.795  58.886  0.00  0.00    +0.000 A 
ATOM      2  C   UNL     1      37.272  51.739  59.054  0.00  0.00    +0.000 A 
ATOM      3  C   UNL     1      35.908  52.010  58.960  0.00  0.00    +0.000 A 
ATOM      4  C   UNL     1      35.420  53.274  58.710  0.00  0.00    +0.000 A 
ATOM      5  C   UNL     1      36.293  54.315  58.545  0.00  0.00    +0.000 A 
ATOM      6  C   UNL     1      37.649  54.063  58.635  0.00  0.00    +0.000 A 
ENDROOT
BRANCH   1   8
ATOM      7  C   UNL     1      40.071  51.477  59.620  0.00  0.00    +0.000 C 
ATOM      8  C   UNL     1      39.571  52.515  58.983  0.00  0.00    +0.000 C 
BRANCH   7  12
ATOM      9  C   UNL     1      44.309  50.878  59.720  0.00  0.00    +0.000 A 
ATOM     10  C   UNL     1      43.715  51.491  58.638  0.00  0.00    +0.000 A 
ATOM     11  C   UNL     1      42.359  51.662  58.646  0.00  0.00    +0.000 A 
ATOM     12  C   UNL     1      41.533  51.261  59.674  0.00  0.00    +0.000 A 
ATOM     13  C   UNL     1      42.127  50.652  60.749  0.00  0.00    +0.000 A 
ATOM     14  C   UNL     1      43.515  50.463  60.767  0.00  0.00    +0.000 A 
BRANCH   9  15
ATOM     15  O   UNL     1      45.692  50.671  59.776  0.00  0.00    +0.000 OA
BRANCH  15  17
ATOM     16  C   UNL     1      47.328  51.685  61.208  0.00  0.00    +0.000 C 
ATOM     17  C   UNL     1      46.380  50.526  60.995  0.00  0.00    +0.000 C 
ENDBRANCH  15  17
ENDBRANCH   9  15
ENDBRANCH   7  12
ENDBRANCH   1   8
BRANCH   3  18
ATOM     18  O   UNL     1      34.995  50.986  59.122  0.00  0.00    +0.000 OA
ATOM     19  C   UNL     1      34.814  50.287  60.331  0.00  0.00    +0.000 C 
ENDBRANCH   3  18
BRANCH   4  20
ATOM     20  O   UNL     1      34.045  53.521  58.621  0.00  0.00    +0.000 OA
ATOM     21  C   UNL     1      33.390  53.991  59.807  0.00  0.00    +0.000 C 
ENDBRANCH   4  20
BRANCH   5  22
ATOM     22  O   UNL     1      35.817  55.594  58.293  0.00  0.00    +0.000 OA
ATOM     23  C   UNL     1      36.374  56.343  57.226  0.00  0.00    +0.000 C 
ENDBRANCH   5  22
TORSDOF 7
ENDMDL
