REMARK  Name = 
REMARK  5 active torsions:
REMARK  status: ('A' for Active; 'I' for Inactive)
REMARK    1  A    between atoms: C_2  and  C_3
REMARK    2  A    between atoms: C_5  and  O_6
REMARK    3  A    between atoms: O_6  and  C_7
REMARK    4  A    between atoms: C_12  and  C_13
REMARK    5  A    between atoms: C_14  and  C_15
REMARK                            x       y       z     vdW  Elec       q    Type
REMARK                         _______ _______ _______ _____ _____    ______ ____
ROOT
ATOM      1  C   UNL     1      -0.958   0.624  -0.068  0.00  0.00    +0.000 A 
ATOM      2  C   UNL     1      -0.525   0.797   1.241  0.00  0.00    +0.000 A 
ATOM      3  C   UNL     1       0.819   0.668   1.492  0.00  0.00    +0.000 A 
ATOM      4  O   UNL     1       1.327   0.827   2.775  0.00  0.00    +0.000 OA
ATOM      5  C   UNL     1       1.673   0.376   0.454  0.00  0.00    +0.000 A 
ATOM      6  C   UNL     1       1.321   0.193  -0.844  0.00  0.00    +0.000 A 
ATOM      7  C   UNL     1      -0.065   0.334  -1.065  0.00  0.00    +0.000 A 
ENDROOT
BRANCH   6   8
ATOM      8  C   UNL     1       2.103  -0.110  -1.998  0.00  0.00    +0.000 C 
ATOM      9  C   UNL     1       3.336  -0.269  -1.995  0.00  0.00    +0.000 C 
BRANCH   9  10
ATOM     10  C   UNL     1       4.238  -0.193  -0.900  0.00  0.00    +0.000 A 
ATOM     11  C   UNL     1       5.579  -0.438  -1.308  0.00  0.00    +0.000 A 
ATOM     12  C   UNL     1       6.617  -0.416  -0.415  0.00  0.00    +0.000 A 
ATOM     13  C   UNL     1       6.454  -0.159   0.928  0.00  0.00    +0.000 A 
ATOM     14  O   UNL     1       7.543  -0.151   1.781  0.00  0.00    +0.000 OA
ATOM     15  C   UNL     1       5.151   0.079   1.326  0.00  0.00    +0.000 A 
ATOM     16  C   UNL     1       4.124   0.051   0.409  0.00  0.00    +0.000 A 
ENDBRANCH   9  10
ENDBRANCH   6   8
BRANCH   1  17
ATOM     17  O   UNL     1      -2.279   0.745  -0.375  0.00  0.00    +0.000 OA
BRANCH  17  20
ATOM     18  C   UNL     1      -4.500   0.917  -0.220  0.00  0.00    +0.000 C 
ATOM     19  O   UNL     1      -4.231   0.855  -1.702  0.00  0.00    +0.000 OA
ATOM     20  C   UNL     1      -2.743   0.464  -1.805  0.00  0.00    +0.000 C 
ATOM     21  C   UNL     1      -3.113  -1.231  -1.668  0.00  0.00    +0.000 C 
ATOM     22  O   UNL     1      -1.709  -1.653  -1.500  0.00  0.00    +0.000 OA
ATOM     23  C   UNL     1      -3.441  -1.268   0.004  0.00  0.00    +0.000 C 
ATOM     24  O   UNL     1      -3.836  -2.715  -0.090  0.00  0.00    +0.000 OA
ATOM     25  C   UNL     1      -5.064  -0.738  -0.219  0.00  0.00    +0.000 C 
ATOM     26  O   UNL     1      -5.314  -0.698   1.259  0.00  0.00    +0.000 OA
BRANCH  18  28
ATOM     27  O   UNL     1      -6.474   1.619   0.834  0.00  0.00    +0.000 OA
ATOM     28  C   UNL     1      -6.033   1.490  -0.463  0.00  0.00    +0.000 C 
ENDBRANCH  18  28
ENDBRANCH  17  20
ENDBRANCH   1  17
TORSDOF 5
