MODEL 1
REMARK VINA RESULT:      -6.4      0.000      0.000
REMARK  Name = 
REMARK  3 active torsions:
REMARK  status: ('A' for Active; 'I' for Inactive)
REMARK    1  A    between atoms: O_2  and  C_3
REMARK    2  A    between atoms: C_7  and  C_8
REMARK    3  A    between atoms: C_9  and  C_10
REMARK                            x       y       z     vdW  Elec       q    Type
REMARK                         _______ _______ _______ _____ _____    ______ ____
ROOT
ATOM      1  C   UNL     1      36.606  53.789  60.981  0.00  0.00    +0.000 A 
ATOM      2  C   UNL     1      35.369  53.985  60.404  0.00  0.00    +0.000 A 
ATOM      3  O   UNL     1      34.282  53.405  61.067  0.00  0.00    +0.000 OA
ATOM      4  C   UNL     1      35.191  54.705  59.245  0.00  0.00    +0.000 A 
ATOM      5  C   UNL     1      36.272  55.268  58.607  0.00  0.00    +0.000 A 
ATOM      6  C   UNL     1      37.515  55.089  59.158  0.00  0.00    +0.000 A 
ATOM      7  C   UNL     1      37.675  54.364  60.320  0.00  0.00    +0.000 A 
ATOM      8  O   UNL     1      38.948  54.179  60.887  0.00  0.00    +0.000 OA
ENDROOT
BRANCH   1  10
ATOM      9  C   UNL     1      37.017  51.660  62.030  0.00  0.00    +0.000 C 
ATOM     10  O   UNL     1      36.815  53.067  62.147  0.00  0.00    +0.000 OA
ENDBRANCH   1  10
BRANCH   5  11
ATOM     11  C   UNL     1      36.080  56.030  57.381  0.00  0.00    +0.000 C 
ATOM     12  C   UNL     1      35.507  57.204  57.362  0.00  0.00    +0.000 C 
BRANCH  12  13
ATOM     13  C   UNL     1      35.309  57.976  56.144  0.00  0.00    +0.000 A 
ATOM     14  C   UNL     1      36.183  57.918  55.085  0.00  0.00    +0.000 A 
ATOM     15  C   UNL     1      35.921  58.682  53.970  0.00  0.00    +0.000 A 
ATOM     16  O   UNL     1      36.781  58.651  52.879  0.00  0.00    +0.000 OA
ATOM     17  C   UNL     1      34.814  59.484  53.911  0.00  0.00    +0.000 A 
ATOM     18  C   UNL     1      33.918  59.561  54.962  0.00  0.00    +0.000 A 
ATOM     19  O   UNL     1      32.810  60.366  54.896  0.00  0.00    +0.000 OA
ATOM     20  C   UNL     1      34.202  58.790  56.062  0.00  0.00    +0.000 A 
ENDBRANCH  12  13
ENDBRANCH   5  11
TORSDOF 3
ENDMDL
MODEL 2
REMARK VINA RESULT:      -6.4      0.073      1.829
REMARK  Name = 
REMARK  3 active torsions:
REMARK  status: ('A' for Active; 'I' for Inactive)
REMARK    1  A    between atoms: O_2  and  C_3
REMARK    2  A    between atoms: C_7  and  C_8
REMARK    3  A    between atoms: C_9  and  C_10
REMARK                            x       y       z     vdW  Elec       q    Type
REMARK                         _______ _______ _______ _____ _____    ______ ____
ROOT
ATOM      1  C   UNL     1      36.652  53.844  60.970  0.00  0.00    +0.000 A 
ATOM      2  C   UNL     1      37.698  54.446  60.302  0.00  0.00    +0.000 A 
ATOM      3  O   UNL     1      38.965  54.288  60.874  0.00  0.00    +0.000 OA
ATOM      4  C   UNL     1      37.529  55.164  59.141  0.00  0.00    +0.000 A 
ATOM      5  C   UNL     1      36.275  55.309  58.593  0.00  0.00    +0.000 A 
ATOM      6  C   UNL     1      35.215  54.722  59.236  0.00  0.00    +0.000 A 
ATOM      7  C   UNL     1      35.404  54.006  60.399  0.00  0.00    +0.000 A 
ATOM      8  O   UNL     1      34.320  53.403  61.060  0.00  0.00    +0.000 OA
ENDROOT
BRANCH   1  10
ATOM      9  C   UNL     1      37.098  51.727  62.029  0.00  0.00    +0.000 C 
ATOM     10  O   UNL     1      36.793  53.116  62.142  0.00  0.00    +0.000 OA
ENDBRANCH   1  10
BRANCH   5  11
ATOM     11  C   UNL     1      36.099  56.069  57.364  0.00  0.00    +0.000 C 
ATOM     12  C   UNL     1      35.495  57.228  57.331  0.00  0.00    +0.000 C 
BRANCH  12  13
ATOM     13  C   UNL     1      35.312  57.999  56.111  0.00  0.00    +0.000 A 
ATOM     14  C   UNL     1      36.221  57.972  55.080  0.00  0.00    +0.000 A 
ATOM     15  C   UNL     1      35.970  58.732  53.959  0.00  0.00    +0.000 A 
ATOM     16  O   UNL     1      36.864  58.732  52.896  0.00  0.00    +0.000 OA
ATOM     17  C   UNL     1      34.842  59.501  53.868  0.00  0.00    +0.000 A 
ATOM     18  C   UNL     1      33.912  59.546  54.890  0.00  0.00    +0.000 A 
ATOM     19  O   UNL     1      32.782  60.317  54.792  0.00  0.00    +0.000 OA
ATOM     20  C   UNL     1      34.184  58.779  55.997  0.00  0.00    +0.000 A 
ENDBRANCH  12  13
ENDBRANCH   5  11
TORSDOF 3
ENDMDL
MODEL 3
REMARK VINA RESULT:      -6.4      0.992      2.691
REMARK  Name = 
REMARK  3 active torsions:
REMARK  status: ('A' for Active; 'I' for Inactive)
REMARK    1  A    between atoms: O_2  and  C_3
REMARK    2  A    between atoms: C_7  and  C_8
REMARK    3  A    between atoms: C_9  and  C_10
REMARK                            x       y       z     vdW  Elec       q    Type
REMARK                         _______ _______ _______ _____ _____    ______ ____
ROOT
ATOM      1  C   UNL     1      36.826  53.098  60.203  0.00  0.00    +0.000 A 
ATOM      2  C   UNL     1      37.640  53.599  59.209  0.00  0.00    +0.000 A 
ATOM      3  O   UNL     1      38.871  52.957  59.039  0.00  0.00    +0.000 OA
ATOM      4  C   UNL     1      37.282  54.667  58.418  0.00  0.00    +0.000 A 
ATOM      5  C   UNL     1      36.067  55.286  58.599  0.00  0.00    +0.000 A 
ATOM      6  C   UNL     1      35.237  54.810  59.582  0.00  0.00    +0.000 A 
ATOM      7  C   UNL     1      35.612  53.738  60.365  0.00  0.00    +0.000 A 
ATOM      8  O   UNL     1      34.763  53.248  61.372  0.00  0.00    +0.000 OA
ENDROOT
BRANCH   1  10
ATOM      9  C   UNL     1      36.883  50.712  60.530  0.00  0.00    +0.000 C 
ATOM     10  O   UNL     1      37.161  52.024  61.016  0.00  0.00    +0.000 OA
ENDBRANCH   1  10
BRANCH   5  11
ATOM     11  C   UNL     1      35.692  56.416  57.761  0.00  0.00    +0.000 C 
ATOM     12  C   UNL     1      36.182  56.600  56.563  0.00  0.00    +0.000 C 
BRANCH  12  13
ATOM     13  C   UNL     1      35.816  57.724  55.715  0.00  0.00    +0.000 A 
ATOM     14  C   UNL     1      34.698  58.489  55.947  0.00  0.00    +0.000 A 
ATOM     15  C   UNL     1      34.425  59.535  55.094  0.00  0.00    +0.000 A 
ATOM     16  O   UNL     1      33.304  60.330  55.296  0.00  0.00    +0.000 OA
ATOM     17  C   UNL     1      35.246  59.812  54.036  0.00  0.00    +0.000 A 
ATOM     18  C   UNL     1      36.377  59.059  53.780  0.00  0.00    +0.000 A 
ATOM     19  O   UNL     1      37.197  59.344  52.718  0.00  0.00    +0.000 OA
ATOM     20  C   UNL     1      36.628  58.022  54.645  0.00  0.00    +0.000 A 
ENDBRANCH  12  13
ENDBRANCH   5  11
TORSDOF 3
ENDMDL
MODEL 4
REMARK VINA RESULT:      -6.4      0.530      1.914
REMARK  Name = 
REMARK  3 active torsions:
REMARK  status: ('A' for Active; 'I' for Inactive)
REMARK    1  A    between atoms: O_2  and  C_3
REMARK    2  A    between atoms: C_7  and  C_8
REMARK    3  A    between atoms: C_9  and  C_10
REMARK                            x       y       z     vdW  Elec       q    Type
REMARK                         _______ _______ _______ _____ _____    ______ ____
ROOT
ATOM      1  C   UNL     1      36.780  53.750  61.119  0.00  0.00    +0.000 A 
ATOM      2  C   UNL     1      35.458  53.840  60.735  0.00  0.00    +0.000 A 
ATOM      3  O   UNL     1      34.571  52.967  61.375  0.00  0.00    +0.000 OA
ATOM      4  C   UNL     1      35.015  54.728  59.782  0.00  0.00    +0.000 A 
ATOM      5  C   UNL     1      35.902  55.579  59.164  0.00  0.00    +0.000 A 
ATOM      6  C   UNL     1      37.224  55.511  59.524  0.00  0.00    +0.000 A 
ATOM      7  C   UNL     1      37.650  54.615  60.481  0.00  0.00    +0.000 A 
ATOM      8  O   UNL     1      39.003  54.544  60.853  0.00  0.00    +0.000 OA
ENDROOT
BRANCH   1  10
ATOM      9  C   UNL     1      37.656  51.567  61.637  0.00  0.00    +0.000 C 
ATOM     10  O   UNL     1      37.254  52.864  62.075  0.00  0.00    +0.000 OA
ENDBRANCH   1  10
BRANCH   5  11
ATOM     11  C   UNL     1      35.431  56.517  58.156  0.00  0.00    +0.000 C 
ATOM     12  C   UNL     1      36.117  56.802  57.080  0.00  0.00    +0.000 C 
BRANCH  12  13
ATOM     13  C   UNL     1      35.659  57.738  56.065  0.00  0.00    +0.000 A 
ATOM     14  C   UNL     1      34.515  58.486  56.215  0.00  0.00    +0.000 A 
ATOM     15  C   UNL     1      34.153  59.349  55.205  0.00  0.00    +0.000 A 
ATOM     16  O   UNL     1      33.004  60.122  55.320  0.00  0.00    +0.000 OA
ATOM     17  C   UNL     1      34.911  59.463  54.072  0.00  0.00    +0.000 A 
ATOM     18  C   UNL     1      36.065  58.722  53.895  0.00  0.00    +0.000 A 
ATOM     19  O   UNL     1      36.821  58.842  52.757  0.00  0.00    +0.000 OA
ATOM     20  C   UNL     1      36.405  57.870  54.917  0.00  0.00    +0.000 A 
ENDBRANCH  12  13
ENDBRANCH   5  11
TORSDOF 3
ENDMDL
MODEL 5
REMARK VINA RESULT:      -5.7      1.528      2.796
REMARK  Name = 
REMARK  3 active torsions:
REMARK  status: ('A' for Active; 'I' for Inactive)
REMARK    1  A    between atoms: O_2  and  C_3
REMARK    2  A    between atoms: C_7  and  C_8
REMARK    3  A    between atoms: C_9  and  C_10
REMARK                            x       y       z     vdW  Elec       q    Type
REMARK                         _______ _______ _______ _____ _____    ______ ____
ROOT
ATOM      1  C   UNL     1      37.225  54.267  60.296  0.00  0.00    +0.000 A 
ATOM      2  C   UNL     1      37.341  55.636  60.403  0.00  0.00    +0.000 A 
ATOM      3  O   UNL     1      37.999  56.111  61.544  0.00  0.00    +0.000 OA
ATOM      4  C   UNL     1      36.848  56.505  59.457  0.00  0.00    +0.000 A 
ATOM      5  C   UNL     1      36.204  56.020  58.341  0.00  0.00    +0.000 A 
ATOM      6  C   UNL     1      36.073  54.661  58.209  0.00  0.00    +0.000 A 
ATOM      7  C   UNL     1      36.573  53.806  59.167  0.00  0.00    +0.000 A 
ATOM      8  O   UNL     1      36.440  52.413  59.033  0.00  0.00    +0.000 OA
ENDROOT
BRANCH   1  10
ATOM      9  C   UNL     1      39.054  52.912  61.084  0.00  0.00    +0.000 C 
ATOM     10  O   UNL     1      37.710  53.368  61.235  0.00  0.00    +0.000 OA
ENDBRANCH   1  10
BRANCH   5  11
ATOM     11  C   UNL     1      35.684  56.941  57.341  0.00  0.00    +0.000 C 
ATOM     12  C   UNL     1      34.727  57.794  57.598  0.00  0.00    +0.000 C 
BRANCH  12  13
ATOM     13  C   UNL     1      34.196  58.721  56.609  0.00  0.00    +0.000 A 
ATOM     14  C   UNL     1      33.132  59.550  56.873  0.00  0.00    +0.000 A 
ATOM     15  C   UNL     1      32.693  60.397  55.880  0.00  0.00    +0.000 A 
ATOM     16  O   UNL     1      31.620  61.249  56.107  0.00  0.00    +0.000 OA
ATOM     17  C   UNL     1      33.300  60.417  54.654  0.00  0.00    +0.000 A 
ATOM     18  C   UNL     1      34.372  59.594  54.362  0.00  0.00    +0.000 A 
ATOM     19  O   UNL     1      34.976  59.621  53.131  0.00  0.00    +0.000 OA
ATOM     20  C   UNL     1      34.791  58.759  55.369  0.00  0.00    +0.000 A 
ENDBRANCH  12  13
ENDBRANCH   5  11
TORSDOF 3
ENDMDL
MODEL 6
REMARK VINA RESULT:      -5.7      2.354      3.368
REMARK  Name = 
REMARK  3 active torsions:
REMARK  status: ('A' for Active; 'I' for Inactive)
REMARK    1  A    between atoms: O_2  and  C_3
REMARK    2  A    between atoms: C_7  and  C_8
REMARK    3  A    between atoms: C_9  and  C_10
REMARK                            x       y       z     vdW  Elec       q    Type
REMARK                         _______ _______ _______ _____ _____    ______ ____
ROOT
ATOM      1  C   UNL     1      37.437  50.496  60.019  0.00  0.00    +0.000 A 
ATOM      2  C   UNL     1      36.090  50.792  60.020  0.00  0.00    +0.000 A 
ATOM      3  O   UNL     1      35.257  49.866  60.658  0.00  0.00    +0.000 OA
ATOM      4  C   UNL     1      35.573  51.925  59.435  0.00  0.00    +0.000 A 
ATOM      5  C   UNL     1      36.407  52.824  58.812  0.00  0.00    +0.000 A 
ATOM      6  C   UNL     1      37.752  52.555  58.794  0.00  0.00    +0.000 A 
ATOM      7  C   UNL     1      38.252  51.415  59.386  0.00  0.00    +0.000 A 
ATOM      8  O   UNL     1      39.630  51.137  59.370  0.00  0.00    +0.000 OA
ENDROOT
BRANCH   1  10
ATOM      9  C   UNL     1      38.332  49.424  61.981  0.00  0.00    +0.000 C 
ATOM     10  O   UNL     1      37.985  49.361  60.599  0.00  0.00    +0.000 OA
ENDBRANCH   1  10
BRANCH   5  11
ATOM     11  C   UNL     1      35.858  54.022  58.194  0.00  0.00    +0.000 C 
ATOM     12  C   UNL     1      36.429  55.194  58.293  0.00  0.00    +0.000 C 
BRANCH  12  13
ATOM     13  C   UNL     1      35.892  56.399  57.681  0.00  0.00    +0.000 A 
ATOM     14  C   UNL     1      35.043  57.250  58.350  0.00  0.00    +0.000 A 
ATOM     15  C   UNL     1      34.580  58.369  57.696  0.00  0.00    +0.000 A 
ATOM     16  O   UNL     1      33.721  59.252  58.338  0.00  0.00    +0.000 OA
ATOM     17  C   UNL     1      34.953  58.635  56.407  0.00  0.00    +0.000 A 
ATOM     18  C   UNL     1      35.805  57.797  55.711  0.00  0.00    +0.000 A 
ATOM     19  O   UNL     1      36.175  58.071  54.419  0.00  0.00    +0.000 OA
ATOM     20  C   UNL     1      36.253  56.688  56.385  0.00  0.00    +0.000 A 
ENDBRANCH  12  13
ENDBRANCH   5  11
TORSDOF 3
ENDMDL
MODEL 7
REMARK VINA RESULT:      -5.7      4.815      9.050
REMARK  Name = 
REMARK  3 active torsions:
REMARK  status: ('A' for Active; 'I' for Inactive)
REMARK    1  A    between atoms: O_2  and  C_3
REMARK    2  A    between atoms: C_7  and  C_8
REMARK    3  A    between atoms: C_9  and  C_10
REMARK                            x       y       z     vdW  Elec       q    Type
REMARK                         _______ _______ _______ _____ _____    ______ ____
ROOT
ATOM      1  C   UNL     1      35.504  52.612  58.805  0.00  0.00    +0.000 A 
ATOM      2  C   UNL     1      36.639  53.368  58.606  0.00  0.00    +0.000 A 
ATOM      3  O   UNL     1      36.445  54.634  58.044  0.00  0.00    +0.000 OA
ATOM      4  C   UNL     1      37.900  52.923  58.934  0.00  0.00    +0.000 A 
ATOM      5  C   UNL     1      38.072  51.675  59.486  0.00  0.00    +0.000 A 
ATOM      6  C   UNL     1      36.959  50.900  59.695  0.00  0.00    +0.000 A 
ATOM      7  C   UNL     1      35.704  51.362  59.361  0.00  0.00    +0.000 A 
ATOM      8  O   UNL     1      34.562  50.570  59.574  0.00  0.00    +0.000 OA
ENDROOT
BRANCH   1  10
ATOM      9  C   UNL     1      33.494  53.761  59.472  0.00  0.00    +0.000 C 
ATOM     10  O   UNL     1      34.222  53.033  58.484  0.00  0.00    +0.000 OA
ENDBRANCH   1  10
BRANCH   5  11
ATOM     11  C   UNL     1      39.407  51.207  59.832  0.00  0.00    +0.000 C 
ATOM     12  C   UNL     1      40.492  51.840  59.471  0.00  0.00    +0.000 C 
BRANCH  12  13
ATOM     13  C   UNL     1      41.832  51.385  59.809  0.00  0.00    +0.000 A 
ATOM     14  C   UNL     1      42.797  51.164  58.855  0.00  0.00    +0.000 A 
ATOM     15  C   UNL     1      44.040  50.733  59.261  0.00  0.00    +0.000 A 
ATOM     16  O   UNL     1      45.042  50.498  58.327  0.00  0.00    +0.000 OA
ATOM     17  C   UNL     1      44.315  50.528  60.585  0.00  0.00    +0.000 A 
ATOM     18  C   UNL     1      43.363  50.743  61.565  0.00  0.00    +0.000 A 
ATOM     19  O   UNL     1      43.646  50.537  62.891  0.00  0.00    +0.000 OA
ATOM     20  C   UNL     1      42.132  51.173  61.134  0.00  0.00    +0.000 A 
ENDBRANCH  12  13
ENDBRANCH   5  11
TORSDOF 3
ENDMDL
MODEL 8
REMARK VINA RESULT:      -5.6     13.270     16.568
REMARK  Name = 
REMARK  3 active torsions:
REMARK  status: ('A' for Active; 'I' for Inactive)
REMARK    1  A    between atoms: O_2  and  C_3
REMARK    2  A    between atoms: C_7  and  C_8
REMARK    3  A    between atoms: C_9  and  C_10
REMARK                            x       y       z     vdW  Elec       q    Type
REMARK                         _______ _______ _______ _____ _____    ______ ____
ROOT
ATOM      1  C   UNL     1      26.740  39.180  61.912  0.00  0.00    +0.000 A 
ATOM      2  C   UNL     1      26.279  39.916  60.841  0.00  0.00    +0.000 A 
ATOM      3  O   UNL     1      25.539  39.214  59.884  0.00  0.00    +0.000 OA
ATOM      4  C   UNL     1      26.522  41.264  60.700  0.00  0.00    +0.000 A 
ATOM      5  C   UNL     1      27.253  41.938  61.652  0.00  0.00    +0.000 A 
ATOM      6  C   UNL     1      27.725  41.231  62.728  0.00  0.00    +0.000 A 
ATOM      7  C   UNL     1      27.472  39.881  62.852  0.00  0.00    +0.000 A 
ATOM      8  O   UNL     1      27.954  39.154  63.954  0.00  0.00    +0.000 OA
ENDROOT
BRANCH   1  10
ATOM      9  C   UNL     1      25.216  37.414  62.511  0.00  0.00    +0.000 C 
ATOM     10  O   UNL     1      26.513  37.822  62.078  0.00  0.00    +0.000 OA
ENDBRANCH   1  10
BRANCH   5  11
ATOM     11  C   UNL     1      27.507  43.363  61.501  0.00  0.00    +0.000 C 
ATOM     12  C   UNL     1      28.049  44.088  62.445  0.00  0.00    +0.000 C 
BRANCH  12  13
ATOM     13  C   UNL     1      28.309  45.512  62.308  0.00  0.00    +0.000 A 
ATOM     14  C   UNL     1      27.299  46.438  62.190  0.00  0.00    +0.000 A 
ATOM     15  C   UNL     1      27.634  47.768  62.064  0.00  0.00    +0.000 A 
ATOM     16  O   UNL     1      26.642  48.733  61.942  0.00  0.00    +0.000 OA
ATOM     17  C   UNL     1      28.942  48.166  62.057  0.00  0.00    +0.000 A 
ATOM     18  C   UNL     1      29.977  47.257  62.175  0.00  0.00    +0.000 A 
ATOM     19  O   UNL     1      31.287  47.663  62.168  0.00  0.00    +0.000 OA
ATOM     20  C   UNL     1      29.618  45.937  62.299  0.00  0.00    +0.000 A 
ENDBRANCH  12  13
ENDBRANCH   5  11
TORSDOF 3
ENDMDL
MODEL 9
REMARK VINA RESULT:      -5.5      2.101      3.218
REMARK  Name = 
REMARK  3 active torsions:
REMARK  status: ('A' for Active; 'I' for Inactive)
REMARK    1  A    between atoms: O_2  and  C_3
REMARK    2  A    between atoms: C_7  and  C_8
REMARK    3  A    between atoms: C_9  and  C_10
REMARK                            x       y       z     vdW  Elec       q    Type
REMARK                         _______ _______ _______ _____ _____    ______ ____
ROOT
ATOM      1  C   UNL     1      39.136  52.386  60.838  0.00  0.00    +0.000 A 
ATOM      2  C   UNL     1      38.463  51.942  59.720  0.00  0.00    +0.000 A 
ATOM      3  O   UNL     1      38.474  50.560  59.503  0.00  0.00    +0.000 OA
ATOM      4  C   UNL     1      37.811  52.791  58.853  0.00  0.00    +0.000 A 
ATOM      5  C   UNL     1      37.811  54.147  59.083  0.00  0.00    +0.000 A 
ATOM      6  C   UNL     1      38.474  54.618  60.188  0.00  0.00    +0.000 A 
ATOM      7  C   UNL     1      39.121  53.753  61.045  0.00  0.00    +0.000 A 
ATOM      8  O   UNL     1      39.800  54.232  62.178  0.00  0.00    +0.000 OA
ENDROOT
BRANCH   1  10
ATOM      9  C   UNL     1      41.166  51.242  61.449  0.00  0.00    +0.000 C 
ATOM     10  O   UNL     1      39.802  51.555  61.727  0.00  0.00    +0.000 OA
ENDBRANCH   1  10
BRANCH   5  11
ATOM     11  C   UNL     1      37.121  55.042  58.165  0.00  0.00    +0.000 C 
ATOM     12  C   UNL     1      36.442  56.083  58.571  0.00  0.00    +0.000 C 
BRANCH  12  13
ATOM     13  C   UNL     1      35.748  56.986  57.665  0.00  0.00    +0.000 A 
ATOM     14  C   UNL     1      34.652  57.721  58.054  0.00  0.00    +0.000 A 
ATOM     15  C   UNL     1      34.055  58.552  57.133  0.00  0.00    +0.000 A 
ATOM     16  O   UNL     1      32.946  59.310  57.488  0.00  0.00    +0.000 OA
ATOM     17  C   UNL     1      34.536  58.649  55.857  0.00  0.00    +0.000 A 
ATOM     18  C   UNL     1      35.635  57.921  55.439  0.00  0.00    +0.000 A 
ATOM     19  O   UNL     1      36.113  58.024  54.158  0.00  0.00    +0.000 OA
ATOM     20  C   UNL     1      36.214  57.100  56.376  0.00  0.00    +0.000 A 
ENDBRANCH  12  13
ENDBRANCH   5  11
TORSDOF 3
ENDMDL
MODEL 10
REMARK VINA RESULT:      -5.5      6.483      8.595
REMARK  Name = 
REMARK  3 active torsions:
REMARK  status: ('A' for Active; 'I' for Inactive)
REMARK    1  A    between atoms: O_2  and  C_3
REMARK    2  A    between atoms: C_7  and  C_8
REMARK    3  A    between atoms: C_9  and  C_10
REMARK                            x       y       z     vdW  Elec       q    Type
REMARK                         _______ _______ _______ _____ _____    ______ ____
ROOT
ATOM      1  C   UNL     1      27.892  61.310  58.244  0.00  0.00    +0.000 A 
ATOM      2  C   UNL     1      28.386  62.295  57.416  0.00  0.00    +0.000 A 
ATOM      3  O   UNL     1      27.523  63.361  57.144  0.00  0.00    +0.000 OA
ATOM      4  C   UNL     1      29.652  62.252  56.876  0.00  0.00    +0.000 A 
ATOM      5  C   UNL     1      30.487  61.194  57.154  0.00  0.00    +0.000 A 
ATOM      6  C   UNL     1      30.021  60.199  57.975  0.00  0.00    +0.000 A 
ATOM      7  C   UNL     1      28.750  60.259  58.507  0.00  0.00    +0.000 A 
ATOM      8  O   UNL     1      28.270  59.241  59.348  0.00  0.00    +0.000 OA
ENDROOT
BRANCH   1  10
ATOM      9  C   UNL     1      26.454  61.985  60.055  0.00  0.00    +0.000 C 
ATOM     10  O   UNL     1      26.621  61.326  58.800  0.00  0.00    +0.000 OA
ENDBRANCH   1  10
BRANCH   5  11
ATOM     11  C   UNL     1      31.825  61.151  56.582  0.00  0.00    +0.000 C 
ATOM     12  C   UNL     1      32.060  60.730  55.367  0.00  0.00    +0.000 C 
BRANCH  12  13
ATOM     13  C   UNL     1      33.391  60.681  54.782  0.00  0.00    +0.000 A 
ATOM     14  C   UNL     1      33.967  59.507  54.358  0.00  0.00    +0.000 A 
ATOM     15  C   UNL     1      35.232  59.550  53.816  0.00  0.00    +0.000 A 
ATOM     16  O   UNL     1      35.848  58.385  53.377  0.00  0.00    +0.000 OA
ATOM     17  C   UNL     1      35.907  60.735  53.699  0.00  0.00    +0.000 A 
ATOM     18  C   UNL     1      35.351  61.930  54.117  0.00  0.00    +0.000 A 
ATOM     19  O   UNL     1      36.033  63.114  53.995  0.00  0.00    +0.000 OA
ATOM     20  C   UNL     1      34.089  61.860  54.654  0.00  0.00    +0.000 A 
ENDBRANCH  12  13
ENDBRANCH   5  11
TORSDOF 3
ENDMDL
