REMARK  Name = 
REMARK  6 active torsions:
REMARK  status: ('A' for Active; 'I' for Inactive)
REMARK    1  A    between atoms: O_2  and  C_3
REMARK    2  A    between atoms: C_6  and  C_7
REMARK    3  A    between atoms: C_8  and  C_9
REMARK    4  A    between atoms: C_11  and  O_12
REMARK    5  A    between atoms: C_14  and  O_15
REMARK    6  A    between atoms: C_17  and  O_18
REMARK                            x       y       z     vdW  Elec       q    Type
REMARK                         _______ _______ _______ _____ _____    ______ ____
ROOT
ATOM      1  C   UNL     1       1.314  -0.267   0.197  0.00  0.00    +0.000 A 
ATOM      2  C   UNL     1       2.066  -1.397   0.432  0.00  0.00    +0.000 A 
ATOM      3  C   UNL     1       3.438  -1.355   0.529  0.00  0.00    +0.000 A 
ATOM      4  C   UNL     1       4.099  -0.153   0.390  0.00  0.00    +0.000 A 
ATOM      5  C   UNL     1       3.341   0.984   0.153  0.00  0.00    +0.000 A 
ATOM      6  C   UNL     1       1.970   0.924   0.059  0.00  0.00    +0.000 A 
ENDROOT
BRANCH   1   8
ATOM      7  C   UNL     1      -0.944   0.615  -0.113  0.00  0.00    +0.000 C 
ATOM      8  C   UNL     1      -0.153  -0.391   0.106  0.00  0.00    +0.000 C 
BRANCH   7  12
ATOM      9  C   UNL     1      -5.206   0.326  -0.389  0.00  0.00    +0.000 A 
ATOM     10  C   UNL     1      -4.564   1.537  -0.532  0.00  0.00    +0.000 A 
ATOM     11  C   UNL     1      -3.171   1.627  -0.440  0.00  0.00    +0.000 A 
ATOM     12  C   UNL     1      -2.402   0.506  -0.206  0.00  0.00    +0.000 A 
ATOM     13  C   UNL     1      -3.078  -0.688  -0.069  0.00  0.00    +0.000 A 
ATOM     14  C   UNL     1      -4.448  -0.797  -0.155  0.00  0.00    +0.000 A 
ATOM     15  O   UNL     1      -5.114  -2.022  -0.012  0.00  0.00    +0.000 OA
BRANCH   9  17
ATOM     16  C   UNL     1      -7.421   1.327  -0.715  0.00  0.00    +0.000 C 
ATOM     17  O   UNL     1      -6.600   0.199  -0.475  0.00  0.00    +0.000 OA
ENDBRANCH   9  17
ENDBRANCH   7  12
ENDBRANCH   1   8
BRANCH   3  18
ATOM     18  O   UNL     1       4.171  -2.506   0.766  0.00  0.00    +0.000 OA
ATOM     19  C   UNL     1       3.610  -3.775   0.923  0.00  0.00    +0.000 C 
ENDBRANCH   3  18
BRANCH   4  20
ATOM     20  O   UNL     1       5.494  -0.072   0.482  0.00  0.00    +0.000 OA
ATOM     21  C   UNL     1       6.264  -0.229  -0.714  0.00  0.00    +0.000 C 
ENDBRANCH   4  20
BRANCH   5  22
ATOM     22  O   UNL     1       4.023   2.206   0.012  0.00  0.00    +0.000 OA
ATOM     23  C   UNL     1       3.311   3.398  -0.230  0.00  0.00    +0.000 C 
ENDBRANCH   5  22
TORSDOF 6
