REMARK  Name = 
REMARK  7 active torsions:
REMARK  status: ('A' for Active; 'I' for Inactive)
REMARK    1  A    between atoms: O_2  and  C_3
REMARK    2  A    between atoms: C_6  and  C_7
REMARK    3  A    between atoms: C_7  and  N_21
REMARK    4  A    between atoms: C_8  and  C_9
REMARK    5  A    between atoms: C_11  and  O_12
REMARK    6  A    between atoms: C_14  and  O_15
REMARK    7  A    between atoms: C_17  and  O_18
REMARK                            x       y       z     vdW  Elec       q    Type
REMARK                         _______ _______ _______ _____ _____    ______ ____
ROOT
ATOM      1  C   UNL     1      -1.135  -0.161   0.179  0.00  0.00    +0.000 C 
ATOM      2  C   UNL     1      -0.276   0.383  -0.647  0.00  0.00    +0.000 C 
ENDROOT
BRANCH   1   6
ATOM      3  C   UNL     1      -5.374   0.381  -0.212  0.00  0.00    +0.000 A 
ATOM      4  C   UNL     1      -4.830  -0.381   0.796  0.00  0.00    +0.000 A 
ATOM      5  C   UNL     1      -3.476  -0.556   0.924  0.00  0.00    +0.000 A 
ATOM      6  C   UNL     1      -2.582   0.020   0.052  0.00  0.00    +0.000 A 
ATOM      7  C   UNL     1      -3.111   0.796  -0.976  0.00  0.00    +0.000 A 
ATOM      8  C   UNL     1      -4.474   0.966  -1.095  0.00  0.00    +0.000 A 
BRANCH   3  10
ATOM      9  C   UNL     1      -7.626  -0.038   0.558  0.00  0.00    +0.000 C 
ATOM     10  O   UNL     1      -6.749   0.569  -0.354  0.00  0.00    +0.000 OA
ENDBRANCH   3  10
ENDBRANCH   1   6
BRANCH   2  11
ATOM     11  C   UNL     1       1.168   0.223  -0.546  0.00  0.00    +0.000 A 
ATOM     12  C   UNL     1       1.986   1.285  -0.866  0.00  0.00    +0.000 A 
ATOM     13  C   UNL     1       3.360   1.247  -0.808  0.00  0.00    +0.000 A 
ATOM     14  C   UNL     1       3.955   0.065  -0.403  0.00  0.00    +0.000 A 
ATOM     15  C   UNL     1       3.162  -1.021  -0.075  0.00  0.00    +0.000 A 
ATOM     16  C   UNL     1       1.785  -0.944  -0.146  0.00  0.00    +0.000 A 
BRANCH  13  17
ATOM     17  O   UNL     1       4.140   2.364  -1.147  0.00  0.00    +0.000 OA
ATOM     18  C   UNL     1       3.465   3.541  -1.553  0.00  0.00    +0.000 C 
ENDBRANCH  13  17
BRANCH  14  19
ATOM     19  O   UNL     1       5.339   0.034  -0.348  0.00  0.00    +0.000 OA
ATOM     20  C   UNL     1       6.003   0.398   0.847  0.00  0.00    +0.000 C 
ENDBRANCH  14  19
BRANCH  15  21
ATOM     21  O   UNL     1       3.777  -2.193   0.327  0.00  0.00    +0.000 OA
ATOM     22  C   UNL     1       3.053  -3.352   0.681  0.00  0.00    +0.000 C 
ENDBRANCH  15  21
ENDBRANCH   2  11
BRANCH   1  23
ATOM     23  N   UNL     1      -0.668  -0.965   1.252  0.00  0.00    +0.000 N 
ATOM     24  O   UNL     1      -0.397  -2.173   1.022  0.00  0.00    +0.000 OA
ATOM     25  O   UNL     1      -0.496  -0.486   2.537  0.00  0.00    +0.000 OA
ENDBRANCH   1  23
TORSDOF 7
