REMARK  Name = 
REMARK  9 active torsions:
REMARK  status: ('A' for Active; 'I' for Inactive)
REMARK    1  A    between atoms: O_2  and  C_3
REMARK    2  A    between atoms: C_6  and  C_7
REMARK    3  A    between atoms: C_8  and  C_9
REMARK    4  A    between atoms: C_11  and  O_12
REMARK    5  A    between atoms: C_14  and  O_15
REMARK    6  A    between atoms: C_17  and  O_18
REMARK    7  A    between atoms: C_22  and  O_23
REMARK    8  A    between atoms: O_23  and  C_24
REMARK    9  A    between atoms: C_24  and  C_25
REMARK                            x       y       z     vdW  Elec       q    Type
REMARK                         _______ _______ _______ _____ _____    ______ ____
ROOT
ATOM      1  C   UNL     1      -0.394  -3.121  -0.758  0.00  0.00    +0.000 C 
ATOM      2  C   UNL     1      -1.476  -2.541  -0.973  0.00  0.00    +0.000 C 
ENDROOT
BRANCH   1   6
ATOM      3  C   UNL     1       3.288  -1.695   0.734  0.00  0.00    +0.000 A 
ATOM      4  C   UNL     1       2.959  -3.029   0.789  0.00  0.00    +0.000 A 
ATOM      5  C   UNL     1       1.749  -3.454   0.345  0.00  0.00    +0.000 A 
ATOM      6  C   UNL     1       0.777  -2.591  -0.186  0.00  0.00    +0.000 A 
ATOM      7  C   UNL     1       1.152  -1.279  -0.219  0.00  0.00    +0.000 A 
ATOM      8  C   UNL     1       2.374  -0.798   0.220  0.00  0.00    +0.000 A 
BRANCH   3  10
ATOM      9  C   UNL     1       5.497  -2.100   1.718  0.00  0.00    +0.000 C 
ATOM     10  O   UNL     1       4.506  -1.261   1.181  0.00  0.00    +0.000 OA
ENDBRANCH   3  10
BRANCH   8  11
ATOM     11  O   UNL     1       2.731   0.536   0.165  0.00  0.00    +0.000 OA
BRANCH  11  12
ATOM     12  C   UNL     1       1.824   1.463  -0.386  0.00  0.00    +0.000 C 
BRANCH  12  13
ATOM     13  C   UNL     1       2.396   2.840  -0.352  0.00  0.00    +0.000 C 
ATOM     14  O   UNL     1       1.697   3.765  -0.811  0.00  0.00    +0.000 OA
ATOM     15  O   UNL     1       3.655   3.029   0.176  0.00  0.00    +0.000 OA
ENDBRANCH  12  13
ENDBRANCH  11  12
ENDBRANCH   8  11
ENDBRANCH   1   6
BRANCH   2  16
ATOM     16  C   UNL     1      -1.784  -1.180  -0.659  0.00  0.00    +0.000 A 
ATOM     17  C   UNL     1      -2.909  -0.694  -1.353  0.00  0.00    +0.000 A 
ATOM     18  C   UNL     1      -3.433   0.545  -1.108  0.00  0.00    +0.000 A 
ATOM     19  C   UNL     1      -2.843   1.342  -0.152  0.00  0.00    +0.000 A 
ATOM     20  C   UNL     1      -1.723   0.885   0.556  0.00  0.00    +0.000 A 
ATOM     21  C   UNL     1      -1.234  -0.362   0.274  0.00  0.00    +0.000 A 
BRANCH  18  22
ATOM     22  O   UNL     1      -4.545   0.963  -1.832  0.00  0.00    +0.000 OA
ATOM     23  C   UNL     1      -5.173   0.193  -2.807  0.00  0.00    +0.000 C 
ENDBRANCH  18  22
BRANCH  19  24
ATOM     24  O   UNL     1      -3.386   2.592   0.083  0.00  0.00    +0.000 OA
ATOM     25  C   UNL     1      -4.393   2.828   1.032  0.00  0.00    +0.000 C 
ENDBRANCH  19  24
BRANCH  20  26
ATOM     26  O   UNL     1      -1.210   1.757   1.503  0.00  0.00    +0.000 OA
ATOM     27  C   UNL     1      -0.104   1.371   2.286  0.00  0.00    +0.000 C 
ENDBRANCH  20  26
ENDBRANCH   2  16
TORSDOF 9
