REMARK  Name = 
REMARK  2 active torsions:
REMARK  status: ('A' for Active; 'I' for Inactive)
REMARK    1  A    between atoms: C_7  and  C_8
REMARK    2  A    between atoms: C_9  and  C_10
REMARK                            x       y       z     vdW  Elec       q    Type
REMARK                         _______ _______ _______ _____ _____    ______ ____
ROOT
ATOM      1  C   UNL     1      -0.369   2.002  -0.958  0.00  0.00    +0.000 C 
ATOM      2  C   UNL     1       0.875   1.841  -0.995  0.00  0.00    +0.000 C 
ENDROOT
BRANCH   1   9
ATOM      3  O   UNL     1      -4.899   1.041   0.599  0.00  0.00    +0.000 OA
ATOM      4  C   UNL     1      -3.605   0.648   0.290  0.00  0.00    +0.000 A 
ATOM      5  C   UNL     1      -3.331  -0.693   0.489  0.00  0.00    +0.000 A 
ATOM      6  C   UNL     1      -2.043  -1.154   0.197  0.00  0.00    +0.000 A 
ATOM      7  O   UNL     1      -1.767  -2.499   0.397  0.00  0.00    +0.000 OA
ATOM      8  C   UNL     1      -1.115  -0.250  -0.275  0.00  0.00    +0.000 A 
ATOM      9  C   UNL     1      -1.347   1.084  -0.486  0.00  0.00    +0.000 A 
ATOM     10  C   UNL     1      -2.653   1.502  -0.179  0.00  0.00    +0.000 A 
ENDBRANCH   1   9
BRANCH   2  11
ATOM     11  C   UNL     1       1.624   0.733  -0.559  0.00  0.00    +0.000 A 
ATOM     12  C   UNL     1       2.599   0.221  -1.433  0.00  0.00    +0.000 A 
ATOM     13  C   UNL     1       3.481  -0.773  -1.098  0.00  0.00    +0.000 A 
ATOM     14  C   UNL     1       3.422  -1.313   0.163  0.00  0.00    +0.000 A 
ATOM     15  O   UNL     1       4.333  -2.321   0.461  0.00  0.00    +0.000 OA
ATOM     16  C   UNL     1       2.491  -0.851   1.061  0.00  0.00    +0.000 A 
ATOM     17  C   UNL     1       1.601   0.174   0.684  0.00  0.00    +0.000 A 
ATOM     18  O   UNL     1       0.703   0.609   1.641  0.00  0.00    +0.000 OA
ENDBRANCH   2  11
TORSDOF 2
