REMARK  Name = 
REMARK  3 active torsions:
REMARK  status: ('A' for Active; 'I' for Inactive)
REMARK    1  A    between atoms: O_2  and  C_3
REMARK    2  A    between atoms: C_6  and  C_7
REMARK    3  A    between atoms: C_8  and  C_9
REMARK                            x       y       z     vdW  Elec       q    Type
REMARK                         _______ _______ _______ _____ _____    ______ ____
ROOT
ATOM      1  C   UNL     1       0.225   0.252  -0.636  0.00  0.00    +0.000 C 
ATOM      2  C   UNL     1      -0.609  -0.260   0.250  0.00  0.00    +0.000 C 
ENDROOT
BRANCH   2   3
ATOM      3  C   UNL     1      -2.023  -0.474  -0.020  0.00  0.00    +0.000 A 
ATOM      4  C   UNL     1      -2.518  -0.127  -1.258  0.00  0.00    +0.000 A 
ATOM      5  C   UNL     1      -3.837  -0.308  -1.558  0.00  0.00    +0.000 A 
ATOM      6  O   UNL     1      -4.428   0.004  -2.759  0.00  0.00    +0.000 OA
ATOM      7  C   UNL     1      -4.658  -0.853  -0.575  0.00  0.00    +0.000 A 
ATOM      8  C   UNL     1      -4.196  -1.210   0.668  0.00  0.00    +0.000 A 
ATOM      9  O   UNL     1      -5.083  -1.746   1.587  0.00  0.00    +0.000 OA
ATOM     10  C   UNL     1      -2.846  -1.010   0.939  0.00  0.00    +0.000 A 
ENDBRANCH   2   3
BRANCH   1  14
ATOM     11  C   UNL     1       4.367   0.858   0.211  0.00  0.00    +0.000 A 
ATOM     12  C   UNL     1       3.810   1.186  -1.013  0.00  0.00    +0.000 A 
ATOM     13  C   UNL     1       2.467   0.981  -1.263  0.00  0.00    +0.000 A 
ATOM     14  C   UNL     1       1.636   0.447  -0.317  0.00  0.00    +0.000 A 
ATOM     15  C   UNL     1       2.172   0.114   0.909  0.00  0.00    +0.000 A 
ATOM     16  C   UNL     1       3.526   0.323   1.156  0.00  0.00    +0.000 A 
BRANCH  11  18
ATOM     17  C   UNL     1       6.275   0.741   1.675  0.00  0.00    +0.000 C 
ATOM     18  O   UNL     1       5.720   1.081   0.419  0.00  0.00    +0.000 OA
ENDBRANCH  11  18
ENDBRANCH   1  14
TORSDOF 3
