REMARK  Name = 
REMARK  5 active torsions:
REMARK  status: ('A' for Active; 'I' for Inactive)
REMARK    1  A    between atoms: O_2  and  C_3
REMARK    2  A    between atoms: C_6  and  C_7
REMARK    3  A    between atoms: C_8  and  C_9
REMARK    4  A    between atoms: C_8  and  C_11
REMARK    5  A    between atoms: C_13  and  O_14
REMARK                            x       y       z     vdW  Elec       q    Type
REMARK                         _______ _______ _______ _____ _____    ______ ____
ROOT
ATOM      1  C   UNL     1      -0.973  -0.406  -0.288  0.00  0.00    +0.000 C 
ATOM      2  C   UNL     1      -0.068   0.387   0.245  0.00  0.00    +0.000 C 
ENDROOT
BRANCH   2   3
ATOM      3  C   UNL     1       1.348   0.127   0.001  0.00  0.00    +0.000 A 
ATOM      4  C   UNL     1       1.815  -0.893  -0.790  0.00  0.00    +0.000 A 
ATOM      5  C   UNL     1       3.166  -1.117  -1.014  0.00  0.00    +0.000 A 
ATOM      6  C   UNL     1       4.116  -0.305  -0.437  0.00  0.00    +0.000 A 
ATOM      7  C   UNL     1       3.655   0.721   0.358  0.00  0.00    +0.000 A 
ATOM      8  C   UNL     1       2.316   0.947   0.583  0.00  0.00    +0.000 A 
ATOM      9  O   UNL     1       4.791   1.397   0.827  0.00  0.00    +0.000 OA
ATOM     10  C   UNL     1       5.914   0.961   0.045  0.00  0.00    +0.000 C 
ATOM     11  O   UNL     1       5.523  -0.283  -0.478  0.00  0.00    +0.000 OA
BRANCH   5  12
ATOM     12  O   UNL     1       3.613  -2.148  -1.817  0.00  0.00    +0.000 OA
ATOM     13  C   UNL     1       2.803  -3.070  -2.485  0.00  0.00    +0.000 C 
ENDBRANCH   5  12
ENDBRANCH   2   3
BRANCH   1  17
ATOM     14  C   UNL     1      -5.146   0.163   0.185  0.00  0.00    +0.000 A 
ATOM     15  C   UNL     1      -4.271   0.956   0.901  0.00  0.00    +0.000 A 
ATOM     16  C   UNL     1      -2.903   0.764   0.743  0.00  0.00    +0.000 A 
ATOM     17  C   UNL     1      -2.414  -0.180  -0.094  0.00  0.00    +0.000 A 
ATOM     18  C   UNL     1      -3.280  -0.979  -0.813  0.00  0.00    +0.000 A 
ATOM     19  C   UNL     1      -4.663  -0.801  -0.668  0.00  0.00    +0.000 A 
BRANCH  14  21
ATOM     20  C   UNL     1      -7.444  -0.463  -0.396  0.00  0.00    +0.000 C 
ATOM     21  O   UNL     1      -6.509   0.325   0.314  0.00  0.00    +0.000 OA
ENDBRANCH  14  21
ENDBRANCH   1  17
BRANCH   2  22
ATOM     22  C   UNL     1      -0.521   1.493   1.031  0.00  0.00    +0.000 C 
ATOM     23  N   UNL     1      -0.869   2.405   1.675  0.00  0.00    +0.000 NA
ENDBRANCH   2  22
TORSDOF 5
