REMARK  Name = 
REMARK  5 active torsions:
REMARK  status: ('A' for Active; 'I' for Inactive)
REMARK    1  A    between atoms: C_2  and  C_3
REMARK    2  A    between atoms: C_5  and  O_6
REMARK    3  A    between atoms: O_6  and  C_7
REMARK    4  A    between atoms: C_12  and  C_13
REMARK    5  A    between atoms: C_14  and  C_15
REMARK                            x       y       z     vdW  Elec       q    Type
REMARK                         _______ _______ _______ _____ _____    ______ ____
ROOT
ATOM      1  C   UNL     1       0.115  -0.493   0.386  0.00  0.00    +0.000 A 
ATOM      2  C   UNL     1       0.536  -1.238  -0.757  0.00  0.00    +0.000 A 
ATOM      3  C   UNL     1      -0.251  -2.308  -1.121  0.00  0.00    +0.000 A 
ATOM      4  O   UNL     1       0.149  -3.049  -2.233  0.00  0.00    +0.000 OA
ATOM      5  C   UNL     1      -1.383  -2.592  -0.393  0.00  0.00    +0.000 A 
ATOM      6  C   UNL     1      -1.849  -1.930   0.684  0.00  0.00    +0.000 A 
ATOM      7  C   UNL     1      -1.020  -0.829   1.049  0.00  0.00    +0.000 A 
ENDROOT
BRANCH   6   8
ATOM      8  C   UNL     1      -2.928  -2.318   1.576  0.00  0.00    +0.000 C 
ATOM      9  C   UNL     1      -3.958  -1.648   1.727  0.00  0.00    +0.000 C 
BRANCH   9  10
ATOM     10  C   UNL     1      -4.295  -0.438   1.100  0.00  0.00    +0.000 A 
ATOM     11  C   UNL     1      -5.438   0.227   1.499  0.00  0.00    +0.000 A 
ATOM     12  C   UNL     1      -5.970   1.283   0.849  0.00  0.00    +0.000 A 
ATOM     13  C   UNL     1      -5.332   1.754  -0.318  0.00  0.00    +0.000 A 
ATOM     14  O   UNL     1      -5.797   2.797  -1.042  0.00  0.00    +0.000 OA
ATOM     15  C   UNL     1      -4.153   1.104  -0.754  0.00  0.00    +0.000 A 
ATOM     16  C   UNL     1      -3.668   0.037  -0.050  0.00  0.00    +0.000 A 
ENDBRANCH   9  10
ENDBRANCH   6   8
BRANCH   1  17
ATOM     17  O   UNL     1       0.987   0.512   0.695  0.00  0.00    +0.000 OA
BRANCH  17  20
ATOM     18  C   UNL     1       3.569   0.124  -1.584  0.00  0.00    +0.000 C 
ATOM     19  O   UNL     1       2.983  -0.178  -0.173  0.00  0.00    +0.000 OA
ATOM     20  C   UNL     1       2.016   1.031  -0.246  0.00  0.00    +0.000 C 
ATOM     21  C   UNL     1       2.981   1.826   1.036  0.00  0.00    +0.000 C 
ATOM     22  O   UNL     1       2.904   0.701   2.027  0.00  0.00    +0.000 OA
ATOM     23  C   UNL     1       4.510   1.279   0.469  0.00  0.00    +0.000 C 
ATOM     24  O   UNL     1       5.180   2.555   0.730  0.00  0.00    +0.000 OA
ATOM     25  C   UNL     1       4.144   1.663  -1.129  0.00  0.00    +0.000 C 
ATOM     26  O   UNL     1       5.508   1.522  -1.683  0.00  0.00    +0.000 OA
BRANCH  18  28
ATOM     27  O   UNL     1       5.613  -0.581  -0.335  0.00  0.00    +0.000 OA
ATOM     28  C   UNL     1       4.847  -0.812  -1.311  0.00  0.00    +0.000 C 
ENDBRANCH  18  28
ENDBRANCH  17  20
ENDBRANCH   1  17
TORSDOF 5
