REMARK  Name = 
REMARK  5 active torsions:
REMARK  status: ('A' for Active; 'I' for Inactive)
REMARK    1  A    between atoms: O_2  and  C_3
REMARK    2  A    between atoms: C_6  and  C_7
REMARK    3  A    between atoms: C_7  and  C_8
REMARK    4  A    between atoms: C_10  and  C_11
REMARK    5  A    between atoms: C_13  and  O_14
REMARK                            x       y       z     vdW  Elec       q    Type
REMARK                         _______ _______ _______ _____ _____    ______ ____
ROOT
ATOM      1  C   UNL     1       0.774  -2.148  -0.942  0.00  0.00    +0.000 C 
ATOM      2  C   UNL     1      -0.490  -1.985  -0.935  0.00  0.00    +0.000 C 
ENDROOT
BRANCH   2   3
ATOM      3  C   UNL     1      -1.220  -0.849  -0.550  0.00  0.00    +0.000 A 
ATOM      4  C   UNL     1      -2.284  -0.981   0.357  0.00  0.00    +0.000 A 
ATOM      5  C   UNL     1      -3.080   0.064   0.740  0.00  0.00    +0.000 A 
ATOM      6  C   UNL     1      -2.847   1.327   0.225  0.00  0.00    +0.000 A 
ATOM      7  C   UNL     1      -1.811   1.501  -0.670  0.00  0.00    +0.000 A 
ATOM      8  C   UNL     1      -1.033   0.421  -1.030  0.00  0.00    +0.000 A 
ATOM      9  O   UNL     1      -1.824   2.856  -1.008  0.00  0.00    +0.000 OA
ATOM     10  C   UNL     1      -2.599   3.570  -0.076  0.00  0.00    +0.000 C 
ATOM     11  O   UNL     1      -3.472   2.560   0.420  0.00  0.00    +0.000 OA
BRANCH   5  12
ATOM     12  O   UNL     1      -4.137  -0.085   1.644  0.00  0.00    +0.000 OA
ATOM     13  C   UNL     1      -4.373  -1.392   2.175  0.00  0.00    +0.000 C 
ENDBRANCH   5  12
ENDBRANCH   2   3
BRANCH   1  17
ATOM     14  C   UNL     1       3.727   0.670   0.264  0.00  0.00    +0.000 A 
ATOM     15  C   UNL     1       4.043  -0.557  -0.274  0.00  0.00    +0.000 A 
ATOM     16  C   UNL     1       3.049  -1.405  -0.646  0.00  0.00    +0.000 A 
ATOM     17  C   UNL     1       1.672  -1.108  -0.516  0.00  0.00    +0.000 A 
ATOM     18  C   UNL     1       1.391   0.099   0.013  0.00  0.00    +0.000 A 
ATOM     19  C   UNL     1       2.379   0.976   0.398  0.00  0.00    +0.000 A 
BRANCH  14  21
ATOM     20  C   UNL     1       4.327   2.796   1.197  0.00  0.00    +0.000 C 
ATOM     21  O   UNL     1       4.723   1.554   0.652  0.00  0.00    +0.000 OA
ENDBRANCH  14  21
ENDBRANCH   1  17
BRANCH   1  22
ATOM     22  C   UNL     1       1.321  -3.439  -1.397  0.00  0.00    +0.000 C 
ATOM     23  N   UNL     1       1.764  -4.443  -1.758  0.00  0.00    +0.000 NA
ENDBRANCH   1  22
TORSDOF 5
