REMARK  Name = 
REMARK  7 active torsions:
REMARK  status: ('A' for Active; 'I' for Inactive)
REMARK    1  A    between atoms: O_2  and  C_3
REMARK    2  A    between atoms: C_6  and  C_7
REMARK    3  A    between atoms: C_7  and  C_8
REMARK    4  A    between atoms: C_10  and  C_11
REMARK    5  A    between atoms: C_13  and  O_14
REMARK    6  A    between atoms: C_16  and  O_17
REMARK    7  A    between atoms: C_19  and  O_20
REMARK                            x       y       z     vdW  Elec       q    Type
REMARK                         _______ _______ _______ _____ _____    ______ ____
ROOT
ATOM      1  C   UNL     1       1.551  -0.702  -1.785  0.00  0.00    +0.000 C 
ATOM      2  C   UNL     1       0.318  -0.523  -2.066  0.00  0.00    +0.000 C 
ENDROOT
BRANCH   1   6
ATOM      3  C   UNL     1       3.431  -0.190   2.012  0.00  0.00    +0.000 A 
ATOM      4  C   UNL     1       4.122  -0.531   0.878  0.00  0.00    +0.000 A 
ATOM      5  C   UNL     1       3.494  -0.683  -0.338  0.00  0.00    +0.000 A 
ATOM      6  C   UNL     1       2.110  -0.498  -0.482  0.00  0.00    +0.000 A 
ATOM      7  C   UNL     1       1.460  -0.161   0.662  0.00  0.00    +0.000 A 
ATOM      8  C   UNL     1       2.065  -0.002   1.891  0.00  0.00    +0.000 A 
BRANCH   3  10
ATOM      9  C   UNL     1       3.380   0.311   4.398  0.00  0.00    +0.000 C 
ATOM     10  O   UNL     1       4.094  -0.043   3.225  0.00  0.00    +0.000 OA
ENDBRANCH   3  10
ENDBRANCH   1   6
BRANCH   2  11
ATOM     11  C   UNL     1      -0.719  -0.096  -1.187  0.00  0.00    +0.000 A 
ATOM     12  C   UNL     1      -1.905  -0.863  -1.248  0.00  0.00    +0.000 A 
ATOM     13  C   UNL     1      -3.013  -0.555  -0.496  0.00  0.00    +0.000 A 
ATOM     14  C   UNL     1      -3.012   0.529   0.360  0.00  0.00    +0.000 A 
ATOM     15  C   UNL     1      -1.859   1.281   0.424  0.00  0.00    +0.000 A 
ATOM     16  C   UNL     1      -0.761   0.956  -0.336  0.00  0.00    +0.000 A 
BRANCH  13  17
ATOM     17  O   UNL     1      -4.186  -1.302  -0.548  0.00  0.00    +0.000 OA
ATOM     18  C   UNL     1      -4.351  -2.433  -1.367  0.00  0.00    +0.000 C 
ENDBRANCH  13  17
BRANCH  14  19
ATOM     19  O   UNL     1      -4.138   0.847   1.128  0.00  0.00    +0.000 OA
ATOM     20  C   UNL     1      -5.082   1.739   0.531  0.00  0.00    +0.000 C 
ENDBRANCH  14  19
BRANCH  15  21
ATOM     21  O   UNL     1      -1.825   2.358   1.260  0.00  0.00    +0.000 OA
ATOM     22  C   UNL     1      -0.670   3.184   1.381  0.00  0.00    +0.000 C 
ENDBRANCH  15  21
ENDBRANCH   2  11
BRANCH   1  23
ATOM     23  C   UNL     1       2.406  -1.145  -2.896  0.00  0.00    +0.000 C 
ATOM     24  N   UNL     1       3.091  -1.481  -3.758  0.00  0.00    +0.000 NA
ENDBRANCH   1  23
TORSDOF 7
