MODEL 1
REMARK VINA RESULT:      -6.5      0.000      0.000
REMARK  Name = 
REMARK  5 active torsions:
REMARK  status: ('A' for Active; 'I' for Inactive)
REMARK    1  A    between atoms: O_2  and  C_3
REMARK    2  A    between atoms: C_6  and  C_7
REMARK    3  A    between atoms: C_8  and  C_9
REMARK    4  A    between atoms: C_8  and  C_11
REMARK    5  A    between atoms: C_13  and  O_14
REMARK                            x       y       z     vdW  Elec       q    Type
REMARK                         _______ _______ _______ _____ _____    ______ ____
ROOT
ATOM      1  C   UNL     1      36.084  56.611  56.487  0.00  0.00    +0.000 C 
ATOM      2  C   UNL     1      36.324  56.660  57.780  0.00  0.00    +0.000 C 
ENDROOT
BRANCH   2   3
ATOM      3  C   UNL     1      36.424  55.418  58.540  0.00  0.00    +0.000 A 
ATOM      4  C   UNL     1      37.453  54.519  58.408  0.00  0.00    +0.000 A 
ATOM      5  C   UNL     1      37.531  53.347  59.147  0.00  0.00    +0.000 A 
ATOM      6  C   UNL     1      36.555  53.030  60.064  0.00  0.00    +0.000 A 
ATOM      7  C   UNL     1      35.519  53.928  60.202  0.00  0.00    +0.000 A 
ATOM      8  C   UNL     1      35.437  55.091  59.471  0.00  0.00    +0.000 A 
ATOM      9  O   UNL     1      34.663  53.395  61.177  0.00  0.00    +0.000 OA
ATOM     10  C   UNL     1      35.366  52.335  61.845  0.00  0.00    +0.000 C 
ATOM     11  O   UNL     1      36.366  51.944  60.939  0.00  0.00    +0.000 OA
BRANCH   5  12
ATOM     12  O   UNL     1      38.579  52.459  59.001  0.00  0.00    +0.000 OA
ATOM     13  C   UNL     1      39.668  52.618  58.140  0.00  0.00    +0.000 C 
ENDBRANCH   5  12
ENDBRANCH   2   3
BRANCH   1  17
ATOM     14  C   UNL     1      35.709  60.127  54.151  0.00  0.00    +0.000 A 
ATOM     15  C   UNL     1      36.917  59.458  54.175  0.00  0.00    +0.000 A 
ATOM     16  C   UNL     1      37.035  58.306  54.944  0.00  0.00    +0.000 A 
ATOM     17  C   UNL     1      35.995  57.829  55.666  0.00  0.00    +0.000 A 
ATOM     18  C   UNL     1      34.784  58.491  55.651  0.00  0.00    +0.000 A 
ATOM     19  C   UNL     1      34.644  59.655  54.882  0.00  0.00    +0.000 A 
BRANCH  14  21
ATOM     20  C   UNL     1      35.014  62.468  53.928  0.00  0.00    +0.000 C 
ATOM     21  O   UNL     1      35.553  61.272  53.399  0.00  0.00    +0.000 OA
ENDBRANCH  14  21
ENDBRANCH   1  17
BRANCH   2  22
ATOM     22  C   UNL     1      36.500  57.946  58.383  0.00  0.00    +0.000 C 
ATOM     23  N   UNL     1      36.637  58.987  58.897  0.00  0.00    +0.000 NA
ENDBRANCH   2  22
TORSDOF 5
ENDMDL
MODEL 2
REMARK VINA RESULT:      -6.3      1.729      2.725
REMARK  Name = 
REMARK  5 active torsions:
REMARK  status: ('A' for Active; 'I' for Inactive)
REMARK    1  A    between atoms: O_2  and  C_3
REMARK    2  A    between atoms: C_6  and  C_7
REMARK    3  A    between atoms: C_8  and  C_9
REMARK    4  A    between atoms: C_8  and  C_11
REMARK    5  A    between atoms: C_13  and  O_14
REMARK                            x       y       z     vdW  Elec       q    Type
REMARK                         _______ _______ _______ _____ _____    ______ ____
ROOT
ATOM      1  C   UNL     1      36.364  56.703  56.838  0.00  0.00    +0.000 C 
ATOM      2  C   UNL     1      35.970  56.162  57.971  0.00  0.00    +0.000 C 
ENDROOT
BRANCH   2   3
ATOM      3  C   UNL     1      36.411  54.813  58.315  0.00  0.00    +0.000 A 
ATOM      4  C   UNL     1      35.595  53.710  58.290  0.00  0.00    +0.000 A 
ATOM      5  C   UNL     1      36.039  52.435  58.614  0.00  0.00    +0.000 A 
ATOM      6  C   UNL     1      37.348  52.221  58.982  0.00  0.00    +0.000 A 
ATOM      7  C   UNL     1      38.173  53.324  59.009  0.00  0.00    +0.000 A 
ATOM      8  C   UNL     1      37.737  54.590  58.688  0.00  0.00    +0.000 A 
ATOM      9  O   UNL     1      39.435  52.862  59.408  0.00  0.00    +0.000 OA
ATOM     10  C   UNL     1      39.430  51.429  59.306  0.00  0.00    +0.000 C 
ATOM     11  O   UNL     1      38.072  51.073  59.356  0.00  0.00    +0.000 OA
BRANCH   5  12
ATOM     12  O   UNL     1      35.200  51.338  58.579  0.00  0.00    +0.000 OA
ATOM     13  C   UNL     1      34.587  50.747  59.687  0.00  0.00    +0.000 C 
ENDBRANCH   5  12
ENDBRANCH   2   3
BRANCH   1  17
ATOM     14  C   UNL     1      35.316  60.672  55.783  0.00  0.00    +0.000 A 
ATOM     15  C   UNL     1      34.502  59.630  55.384  0.00  0.00    +0.000 A 
ATOM     16  C   UNL     1      34.851  58.330  55.732  0.00  0.00    +0.000 A 
ATOM     17  C   UNL     1      35.968  58.066  56.449  0.00  0.00    +0.000 A 
ATOM     18  C   UNL     1      36.789  59.100  56.851  0.00  0.00    +0.000 A 
ATOM     19  C   UNL     1      36.454  60.418  56.511  0.00  0.00    +0.000 A 
BRANCH  14  21
ATOM     20  C   UNL     1      35.057  62.468  54.135  0.00  0.00    +0.000 C 
ATOM     21  O   UNL     1      35.002  61.974  55.459  0.00  0.00    +0.000 OA
ENDBRANCH  14  21
ENDBRANCH   1  17
BRANCH   2  22
ATOM     22  C   UNL     1      35.133  56.939  58.833  0.00  0.00    +0.000 C 
ATOM     23  N   UNL     1      34.448  57.591  59.521  0.00  0.00    +0.000 NA
ENDBRANCH   2  22
TORSDOF 5
ENDMDL
MODEL 3
REMARK VINA RESULT:      -6.1      2.393      8.039
REMARK  Name = 
REMARK  5 active torsions:
REMARK  status: ('A' for Active; 'I' for Inactive)
REMARK    1  A    between atoms: O_2  and  C_3
REMARK    2  A    between atoms: C_6  and  C_7
REMARK    3  A    between atoms: C_8  and  C_9
REMARK    4  A    between atoms: C_8  and  C_11
REMARK    5  A    between atoms: C_13  and  O_14
REMARK                            x       y       z     vdW  Elec       q    Type
REMARK                         _______ _______ _______ _____ _____    ______ ____
ROOT
ATOM      1  C   UNL     1      35.205  54.713  58.833  0.00  0.00    +0.000 C 
ATOM      2  C   UNL     1      36.339  55.246  58.430  0.00  0.00    +0.000 C 
ENDROOT
BRANCH   2   3
ATOM      3  C   UNL     1      36.328  56.556  57.785  0.00  0.00    +0.000 A 
ATOM      4  C   UNL     1      36.153  56.746  56.437  0.00  0.00    +0.000 A 
ATOM      5  C   UNL     1      36.138  58.002  55.847  0.00  0.00    +0.000 A 
ATOM      6  C   UNL     1      36.304  59.136  56.609  0.00  0.00    +0.000 A 
ATOM      7  C   UNL     1      36.480  58.954  57.963  0.00  0.00    +0.000 A 
ATOM      8  C   UNL     1      36.495  57.710  58.553  0.00  0.00    +0.000 A 
ATOM      9  O   UNL     1      36.627  60.234  58.517  0.00  0.00    +0.000 OA
ATOM     10  C   UNL     1      36.214  61.189  57.528  0.00  0.00    +0.000 C 
ATOM     11  O   UNL     1      36.334  60.510  56.304  0.00  0.00    +0.000 OA
BRANCH   5  12
ATOM     12  O   UNL     1      35.956  58.169  54.488  0.00  0.00    +0.000 OA
ATOM     13  C   UNL     1      36.944  58.545  53.575  0.00  0.00    +0.000 C 
ENDBRANCH   5  12
ENDBRANCH   2   3
BRANCH   1  17
ATOM     14  C   UNL     1      35.045  50.897  60.670  0.00  0.00    +0.000 A 
ATOM     15  C   UNL     1      35.231  52.017  61.456  0.00  0.00    +0.000 A 
ATOM     16  C   UNL     1      35.285  53.266  60.848  0.00  0.00    +0.000 A 
ATOM     17  C   UNL     1      35.159  53.406  59.508  0.00  0.00    +0.000 A 
ATOM     18  C   UNL     1      34.974  52.293  58.713  0.00  0.00    +0.000 A 
ATOM     19  C   UNL     1      34.917  51.024  59.307  0.00  0.00    +0.000 A 
BRANCH  14  21
ATOM     20  C   UNL     1      34.797  49.436  62.623  0.00  0.00    +0.000 C 
ATOM     21  O   UNL     1      34.985  49.642  61.236  0.00  0.00    +0.000 OA
ENDBRANCH  14  21
ENDBRANCH   1  17
BRANCH   2  22
ATOM     22  C   UNL     1      37.547  54.516  58.664  0.00  0.00    +0.000 C 
ATOM     23  N   UNL     1      38.547  53.939  58.852  0.00  0.00    +0.000 NA
ENDBRANCH   2  22
TORSDOF 5
ENDMDL
MODEL 4
REMARK VINA RESULT:      -6.1      1.911      7.841
REMARK  Name = 
REMARK  5 active torsions:
REMARK  status: ('A' for Active; 'I' for Inactive)
REMARK    1  A    between atoms: O_2  and  C_3
REMARK    2  A    between atoms: C_6  and  C_7
REMARK    3  A    between atoms: C_8  and  C_9
REMARK    4  A    between atoms: C_8  and  C_11
REMARK    5  A    between atoms: C_13  and  O_14
REMARK                            x       y       z     vdW  Elec       q    Type
REMARK                         _______ _______ _______ _____ _____    ______ ____
ROOT
ATOM      1  C   UNL     1      36.256  55.486  58.079  0.00  0.00    +0.000 C 
ATOM      2  C   UNL     1      36.169  56.791  58.219  0.00  0.00    +0.000 C 
ENDROOT
BRANCH   2   3
ATOM      3  C   UNL     1      35.557  57.588  57.160  0.00  0.00    +0.000 A 
ATOM      4  C   UNL     1      36.000  57.606  55.861  0.00  0.00    +0.000 A 
ATOM      5  C   UNL     1      35.398  58.365  54.868  0.00  0.00    +0.000 A 
ATOM      6  C   UNL     1      34.304  59.151  55.153  0.00  0.00    +0.000 A 
ATOM      7  C   UNL     1      33.853  59.138  56.454  0.00  0.00    +0.000 A 
ATOM      8  C   UNL     1      34.447  58.387  57.442  0.00  0.00    +0.000 A 
ATOM      9  O   UNL     1      32.750  60.003  56.497  0.00  0.00    +0.000 OA
ATOM     10  C   UNL     1      32.355  60.277  55.144  0.00  0.00    +0.000 C 
ATOM     11  O   UNL     1      33.501  60.008  54.376  0.00  0.00    +0.000 OA
BRANCH   5  12
ATOM     12  O   UNL     1      35.859  58.365  53.566  0.00  0.00    +0.000 OA
ATOM     13  C   UNL     1      36.947  59.099  53.087  0.00  0.00    +0.000 C 
ENDBRANCH   5  12
ENDBRANCH   2   3
BRANCH   1  17
ATOM     14  C   UNL     1      38.049  53.018  61.022  0.00  0.00    +0.000 A 
ATOM     15  C   UNL     1      36.724  53.382  61.162  0.00  0.00    +0.000 A 
ATOM     16  C   UNL     1      36.142  54.193  60.194  0.00  0.00    +0.000 A 
ATOM     17  C   UNL     1      36.843  54.631  59.123  0.00  0.00    +0.000 A 
ATOM     18  C   UNL     1      38.168  54.273  58.974  0.00  0.00    +0.000 A 
ATOM     19  C   UNL     1      38.774  53.456  59.939  0.00  0.00    +0.000 A 
BRANCH  14  21
ATOM     20  C   UNL     1      38.863  50.828  61.764  0.00  0.00    +0.000 C 
ATOM     21  O   UNL     1      38.661  52.213  61.959  0.00  0.00    +0.000 OA
ENDBRANCH  14  21
ENDBRANCH   1  17
BRANCH   2  22
ATOM     22  C   UNL     1      36.664  57.373  59.428  0.00  0.00    +0.000 C 
ATOM     23  N   UNL     1      37.084  57.863  60.404  0.00  0.00    +0.000 NA
ENDBRANCH   2  22
TORSDOF 5
ENDMDL
MODEL 5
REMARK VINA RESULT:      -6.1      1.945      8.253
REMARK  Name = 
REMARK  5 active torsions:
REMARK  status: ('A' for Active; 'I' for Inactive)
REMARK    1  A    between atoms: O_2  and  C_3
REMARK    2  A    between atoms: C_6  and  C_7
REMARK    3  A    between atoms: C_8  and  C_9
REMARK    4  A    between atoms: C_8  and  C_11
REMARK    5  A    between atoms: C_13  and  O_14
REMARK                            x       y       z     vdW  Elec       q    Type
REMARK                         _______ _______ _______ _____ _____    ______ ____
ROOT
ATOM      1  C   UNL     1      35.882  55.503  58.302  0.00  0.00    +0.000 C 
ATOM      2  C   UNL     1      35.367  56.714  58.344  0.00  0.00    +0.000 C 
ENDROOT
BRANCH   2   3
ATOM      3  C   UNL     1      35.311  57.513  57.123  0.00  0.00    +0.000 A 
ATOM      4  C   UNL     1      34.337  58.443  56.859  0.00  0.00    +0.000 A 
ATOM      5  C   UNL     1      34.308  59.197  55.694  0.00  0.00    +0.000 A 
ATOM      6  C   UNL     1      35.279  59.037  54.732  0.00  0.00    +0.000 A 
ATOM      7  C   UNL     1      36.260  58.106  54.990  0.00  0.00    +0.000 A 
ATOM      8  C   UNL     1      36.293  57.356  56.144  0.00  0.00    +0.000 A 
ATOM      9  O   UNL     1      37.120  58.122  53.882  0.00  0.00    +0.000 OA
ATOM     10  C   UNL     1      36.821  59.299  53.113  0.00  0.00    +0.000 C 
ATOM     11  O   UNL     1      35.510  59.642  53.482  0.00  0.00    +0.000 OA
BRANCH   5  12
ATOM     12  O   UNL     1      33.319  60.130  55.452  0.00  0.00    +0.000 OA
ATOM     13  C   UNL     1      33.456  61.515  55.583  0.00  0.00    +0.000 C 
ENDBRANCH   5  12
ENDBRANCH   2   3
BRANCH   1  17
ATOM     14  C   UNL     1      36.177  53.066  61.756  0.00  0.00    +0.000 A 
ATOM     15  C   UNL     1      35.015  53.043  61.012  0.00  0.00    +0.000 A 
ATOM     16  C   UNL     1      34.923  53.846  59.880  0.00  0.00    +0.000 A 
ATOM     17  C   UNL     1      35.944  54.645  59.496  0.00  0.00    +0.000 A 
ATOM     18  C   UNL     1      37.110  54.677  60.235  0.00  0.00    +0.000 A 
ATOM     19  C   UNL     1      37.223  53.875  61.379  0.00  0.00    +0.000 A 
BRANCH  14  21
ATOM     20  C   UNL     1      35.321  51.350  63.285  0.00  0.00    +0.000 C 
ATOM     21  O   UNL     1      36.306  52.282  62.884  0.00  0.00    +0.000 OA
ENDBRANCH  14  21
ENDBRANCH   1  17
BRANCH   2  22
ATOM     22  C   UNL     1      34.860  57.188  59.595  0.00  0.00    +0.000 C 
ATOM     23  N   UNL     1      34.460  57.559  60.629  0.00  0.00    +0.000 NA
ENDBRANCH   2  22
TORSDOF 5
ENDMDL
MODEL 6
REMARK VINA RESULT:      -6.0      5.060      7.602
REMARK  Name = 
REMARK  5 active torsions:
REMARK  status: ('A' for Active; 'I' for Inactive)
REMARK    1  A    between atoms: O_2  and  C_3
REMARK    2  A    between atoms: C_6  and  C_7
REMARK    3  A    between atoms: C_8  and  C_9
REMARK    4  A    between atoms: C_8  and  C_11
REMARK    5  A    between atoms: C_13  and  O_14
REMARK                            x       y       z     vdW  Elec       q    Type
REMARK                         _______ _______ _______ _____ _____    ______ ____
ROOT
ATOM      1  C   UNL     1      31.250  60.123  56.152  0.00  0.00    +0.000 C 
ATOM      2  C   UNL     1      32.302  59.915  56.915  0.00  0.00    +0.000 C 
ENDROOT
BRANCH   2   3
ATOM      3  C   UNL     1      33.536  59.415  56.315  0.00  0.00    +0.000 A 
ATOM      4  C   UNL     1      34.331  58.452  56.887  0.00  0.00    +0.000 A 
ATOM      5  C   UNL     1      35.496  57.986  56.295  0.00  0.00    +0.000 A 
ATOM      6  C   UNL     1      35.913  58.483  55.081  0.00  0.00    +0.000 A 
ATOM      7  C   UNL     1      35.120  59.449  54.501  0.00  0.00    +0.000 A 
ATOM      8  C   UNL     1      33.964  59.914  55.084  0.00  0.00    +0.000 A 
ATOM      9  O   UNL     1      35.742  59.794  53.292  0.00  0.00    +0.000 OA
ATOM     10  C   UNL     1      36.734  58.795  53.008  0.00  0.00    +0.000 C 
ATOM     11  O   UNL     1      37.020  58.213  54.254  0.00  0.00    +0.000 OA
BRANCH   5  12
ATOM     12  O   UNL     1      36.279  57.014  56.887  0.00  0.00    +0.000 OA
ATOM     13  C   UNL     1      36.071  56.461  58.154  0.00  0.00    +0.000 C 
ENDBRANCH   5  12
ENDBRANCH   2   3
BRANCH   1  17
ATOM     14  C   UNL     1      27.573  61.518  57.732  0.00  0.00    +0.000 A 
ATOM     15  C   UNL     1      28.518  62.433  57.311  0.00  0.00    +0.000 A 
ATOM     16  C   UNL     1      29.723  61.970  56.795  0.00  0.00    +0.000 A 
ATOM     17  C   UNL     1      29.988  60.647  56.698  0.00  0.00    +0.000 A 
ATOM     18  C   UNL     1      29.051  59.724  57.117  0.00  0.00    +0.000 A 
ATOM     19  C   UNL     1      27.829  60.170  57.640  0.00  0.00    +0.000 A 
BRANCH  14  21
ATOM     20  C   UNL     1      26.106  61.999  59.636  0.00  0.00    +0.000 C 
ATOM     21  O   UNL     1      26.366  61.939  58.247  0.00  0.00    +0.000 OA
ENDBRANCH  14  21
ENDBRANCH   1  17
BRANCH   2  22
ATOM     22  C   UNL     1      32.193  60.213  58.310  0.00  0.00    +0.000 C 
ATOM     23  N   UNL     1      32.091  60.477  59.444  0.00  0.00    +0.000 NA
ENDBRANCH   2  22
TORSDOF 5
ENDMDL
MODEL 7
REMARK VINA RESULT:      -6.0      2.249      8.174
REMARK  Name = 
REMARK  5 active torsions:
REMARK  status: ('A' for Active; 'I' for Inactive)
REMARK    1  A    between atoms: O_2  and  C_3
REMARK    2  A    between atoms: C_6  and  C_7
REMARK    3  A    between atoms: C_8  and  C_9
REMARK    4  A    between atoms: C_8  and  C_11
REMARK    5  A    between atoms: C_13  and  O_14
REMARK                            x       y       z     vdW  Elec       q    Type
REMARK                         _______ _______ _______ _____ _____    ______ ____
ROOT
ATOM      1  C   UNL     1      35.201  54.826  58.761  0.00  0.00    +0.000 C 
ATOM      2  C   UNL     1      36.342  55.310  58.316  0.00  0.00    +0.000 C 
ENDROOT
BRANCH   2   3
ATOM      3  C   UNL     1      36.351  56.581  57.597  0.00  0.00    +0.000 A 
ATOM      4  C   UNL     1      36.391  57.808  58.210  0.00  0.00    +0.000 A 
ATOM      5  C   UNL     1      36.407  59.004  57.506  0.00  0.00    +0.000 A 
ATOM      6  C   UNL     1      36.382  59.007  56.129  0.00  0.00    +0.000 A 
ATOM      7  C   UNL     1      36.342  57.779  55.507  0.00  0.00    +0.000 A 
ATOM      8  C   UNL     1      36.327  56.590  56.201  0.00  0.00    +0.000 A 
ATOM      9  O   UNL     1      36.322  58.036  54.128  0.00  0.00    +0.000 OA
ATOM     10  C   UNL     1      36.675  59.415  53.935  0.00  0.00    +0.000 C 
ATOM     11  O   UNL     1      36.390  60.032  55.164  0.00  0.00    +0.000 OA
BRANCH   5  12
ATOM     12  O   UNL     1      36.451  60.228  58.144  0.00  0.00    +0.000 OA
ATOM     13  C   UNL     1      36.204  60.448  59.502  0.00  0.00    +0.000 C 
ENDBRANCH   5  12
ENDBRANCH   2   3
BRANCH   1  17
ATOM     14  C   UNL     1      34.977  51.127  60.817  0.00  0.00    +0.000 A 
ATOM     15  C   UNL     1      35.233  52.282  61.530  0.00  0.00    +0.000 A 
ATOM     16  C   UNL     1      35.307  53.492  60.850  0.00  0.00    +0.000 A 
ATOM     17  C   UNL     1      35.134  53.562  59.510  0.00  0.00    +0.000 A 
ATOM     18  C   UNL     1      34.879  52.414  58.788  0.00  0.00    +0.000 A 
ATOM     19  C   UNL     1      34.800  51.183  59.455  0.00  0.00    +0.000 A 
BRANCH  14  21
ATOM     20  C   UNL     1      36.035  49.173  61.852  0.00  0.00    +0.000 C 
ATOM     21  O   UNL     1      34.894  49.909  61.457  0.00  0.00    +0.000 OA
ENDBRANCH  14  21
ENDBRANCH   1  17
BRANCH   2  22
ATOM     22  C   UNL     1      37.536  54.568  58.580  0.00  0.00    +0.000 C 
ATOM     23  N   UNL     1      38.524  53.975  58.779  0.00  0.00    +0.000 NA
ENDBRANCH   2  22
TORSDOF 5
ENDMDL
MODEL 8
REMARK VINA RESULT:      -5.9      3.518      8.194
REMARK  Name = 
REMARK  5 active torsions:
REMARK  status: ('A' for Active; 'I' for Inactive)
REMARK    1  A    between atoms: O_2  and  C_3
REMARK    2  A    between atoms: C_6  and  C_7
REMARK    3  A    between atoms: C_8  and  C_9
REMARK    4  A    between atoms: C_8  and  C_11
REMARK    5  A    between atoms: C_13  and  O_14
REMARK                            x       y       z     vdW  Elec       q    Type
REMARK                         _______ _______ _______ _____ _____    ______ ____
ROOT
ATOM      1  C   UNL     1      39.513  51.957  58.988  0.00  0.00    +0.000 C 
ATOM      2  C   UNL     1      39.000  53.024  59.561  0.00  0.00    +0.000 C 
ENDROOT
BRANCH   2   3
ATOM      3  C   UNL     1      37.585  53.331  59.373  0.00  0.00    +0.000 A 
ATOM      4  C   UNL     1      37.091  54.600  59.205  0.00  0.00    +0.000 A 
ATOM      5  C   UNL     1      35.742  54.868  59.020  0.00  0.00    +0.000 A 
ATOM      6  C   UNL     1      34.822  53.844  58.996  0.00  0.00    +0.000 A 
ATOM      7  C   UNL     1      35.310  52.567  59.163  0.00  0.00    +0.000 A 
ATOM      8  C   UNL     1      36.647  52.297  59.348  0.00  0.00    +0.000 A 
ATOM      9  O   UNL     1      34.201  51.711  59.105  0.00  0.00    +0.000 OA
ATOM     10  C   UNL     1      33.095  52.462  58.580  0.00  0.00    +0.000 C 
ATOM     11  O   UNL     1      33.425  53.804  58.831  0.00  0.00    +0.000 OA
BRANCH   5  12
ATOM     12  O   UNL     1      35.268  56.154  58.850  0.00  0.00    +0.000 OA
ATOM     13  C   UNL     1      35.817  57.119  58.002  0.00  0.00    +0.000 C 
ENDBRANCH   5  12
ENDBRANCH   2   3
BRANCH   1  17
ATOM     14  C   UNL     1      43.613  50.957  59.387  0.00  0.00    +0.000 A 
ATOM     15  C   UNL     1      42.692  50.384  60.242  0.00  0.00    +0.000 A 
ATOM     16  C   UNL     1      41.348  50.716  60.107  0.00  0.00    +0.000 A 
ATOM     17  C   UNL     1      40.927  51.587  59.160  0.00  0.00    +0.000 A 
ATOM     18  C   UNL     1      41.840  52.167  58.303  0.00  0.00    +0.000 A 
ATOM     19  C   UNL     1      43.199  51.845  58.422  0.00  0.00    +0.000 A 
BRANCH  14  21
ATOM     20  C   UNL     1      45.718  50.936  60.643  0.00  0.00    +0.000 C 
ATOM     21  O   UNL     1      44.953  50.651  59.489  0.00  0.00    +0.000 OA
ENDBRANCH  14  21
ENDBRANCH   1  17
BRANCH   2  22
ATOM     22  C   UNL     1      39.859  53.833  60.370  0.00  0.00    +0.000 C 
ATOM     23  N   UNL     1      40.555  54.481  61.051  0.00  0.00    +0.000 NA
ENDBRANCH   2  22
TORSDOF 5
ENDMDL
MODEL 9
REMARK VINA RESULT:      -5.9      2.158      8.070
REMARK  Name = 
REMARK  5 active torsions:
REMARK  status: ('A' for Active; 'I' for Inactive)
REMARK    1  A    between atoms: O_2  and  C_3
REMARK    2  A    between atoms: C_6  and  C_7
REMARK    3  A    between atoms: C_8  and  C_9
REMARK    4  A    between atoms: C_8  and  C_11
REMARK    5  A    between atoms: C_13  and  O_14
REMARK                            x       y       z     vdW  Elec       q    Type
REMARK                         _______ _______ _______ _____ _____    ______ ____
ROOT
ATOM      1  C   UNL     1      36.823  54.656  58.216  0.00  0.00    +0.000 C 
ATOM      2  C   UNL     1      36.000  55.678  58.325  0.00  0.00    +0.000 C 
ENDROOT
BRANCH   2   3
ATOM      3  C   UNL     1      36.224  56.870  57.513  0.00  0.00    +0.000 A 
ATOM      4  C   UNL     1      36.507  58.109  58.031  0.00  0.00    +0.000 A 
ATOM      5  C   UNL     1      36.724  59.228  57.239  0.00  0.00    +0.000 A 
ATOM      6  C   UNL     1      36.660  59.138  55.867  0.00  0.00    +0.000 A 
ATOM      7  C   UNL     1      36.376  57.898  55.339  0.00  0.00    +0.000 A 
ATOM      8  C   UNL     1      36.161  56.785  56.121  0.00  0.00    +0.000 A 
ATOM      9  O   UNL     1      36.364  58.056  53.945  0.00  0.00    +0.000 OA
ATOM     10  C   UNL     1      36.961  59.327  53.644  0.00  0.00    +0.000 C 
ATOM     11  O   UNL     1      36.830  60.072  54.828  0.00  0.00    +0.000 OA
BRANCH   5  12
ATOM     12  O   UNL     1      37.011  60.464  57.783  0.00  0.00    +0.000 OA
ATOM     13  C   UNL     1      38.205  60.818  58.416  0.00  0.00    +0.000 C 
ENDBRANCH   5  12
ENDBRANCH   2   3
BRANCH   1  17
ATOM     14  C   UNL     1      36.213  51.055  60.365  0.00  0.00    +0.000 A 
ATOM     15  C   UNL     1      36.902  52.091  60.965  0.00  0.00    +0.000 A 
ATOM     16  C   UNL     1      37.101  53.270  60.254  0.00  0.00    +0.000 A 
ATOM     17  C   UNL     1      36.635  53.421  58.993  0.00  0.00    +0.000 A 
ATOM     18  C   UNL     1      35.946  52.392  58.384  0.00  0.00    +0.000 A 
ATOM     19  C   UNL     1      35.735  51.195  59.084  0.00  0.00    +0.000 A 
BRANCH  14  21
ATOM     20  C   UNL     1      34.776  49.575  61.690  0.00  0.00    +0.000 C 
ATOM     21  O   UNL     1      35.996  49.872  61.038  0.00  0.00    +0.000 OA
ENDBRANCH  14  21
ENDBRANCH   1  17
BRANCH   2  22
ATOM     22  C   UNL     1      34.899  55.562  59.231  0.00  0.00    +0.000 C 
ATOM     23  N   UNL     1      34.012  55.478  59.988  0.00  0.00    +0.000 NA
ENDBRANCH   2  22
TORSDOF 5
ENDMDL
MODEL 10
REMARK VINA RESULT:      -5.9      3.698      8.527
REMARK  Name = 
REMARK  5 active torsions:
REMARK  status: ('A' for Active; 'I' for Inactive)
REMARK    1  A    between atoms: O_2  and  C_3
REMARK    2  A    between atoms: C_6  and  C_7
REMARK    3  A    between atoms: C_8  and  C_9
REMARK    4  A    between atoms: C_8  and  C_11
REMARK    5  A    between atoms: C_13  and  O_14
REMARK                            x       y       z     vdW  Elec       q    Type
REMARK                         _______ _______ _______ _____ _____    ______ ____
ROOT
ATOM      1  C   UNL     1      40.214  52.921  59.507  0.00  0.00    +0.000 C 
ATOM      2  C   UNL     1      39.023  52.362  59.518  0.00  0.00    +0.000 C 
ENDROOT
BRANCH   2   3
ATOM      3  C   UNL     1      37.833  53.206  59.462  0.00  0.00    +0.000 A 
ATOM      4  C   UNL     1      37.797  54.442  58.866  0.00  0.00    +0.000 A 
ATOM      5  C   UNL     1      36.652  55.224  58.818  0.00  0.00    +0.000 A 
ATOM      6  C   UNL     1      35.476  54.780  59.379  0.00  0.00    +0.000 A 
ATOM      7  C   UNL     1      35.504  53.540  59.978  0.00  0.00    +0.000 A 
ATOM      8  C   UNL     1      36.637  52.761  60.029  0.00  0.00    +0.000 A 
ATOM      9  O   UNL     1      34.211  53.312  60.471  0.00  0.00    +0.000 OA
ATOM     10  C   UNL     1      33.337  54.285  59.877  0.00  0.00    +0.000 C 
ATOM     11  O   UNL     1      34.186  55.333  59.485  0.00  0.00    +0.000 OA
BRANCH   5  12
ATOM     12  O   UNL     1      36.639  56.464  58.210  0.00  0.00    +0.000 OA
ATOM     13  C   UNL     1      36.250  56.722  56.893  0.00  0.00    +0.000 C 
ENDBRANCH   5  12
ENDBRANCH   2   3
BRANCH   1  17
ATOM     14  C   UNL     1      43.758  50.607  59.724  0.00  0.00    +0.000 A 
ATOM     15  C   UNL     1      43.353  51.108  58.503  0.00  0.00    +0.000 A 
ATOM     16  C   UNL     1      42.189  51.866  58.437  0.00  0.00    +0.000 A 
ATOM     17  C   UNL     1      41.448  52.120  59.541  0.00  0.00    +0.000 A 
ATOM     18  C   UNL     1      41.844  51.622  60.766  0.00  0.00    +0.000 A 
ATOM     19  C   UNL     1      43.015  50.856  60.853  0.00  0.00    +0.000 A 
BRANCH  14  21
ATOM     20  C   UNL     1      45.411  49.073  58.763  0.00  0.00    +0.000 C 
ATOM     21  O   UNL     1      44.908  49.853  59.829  0.00  0.00    +0.000 OA
ENDBRANCH  14  21
ENDBRANCH   1  17
BRANCH   2  22
ATOM     22  C   UNL     1      38.950  50.934  59.565  0.00  0.00    +0.000 C 
ATOM     23  N   UNL     1      38.914  49.765  59.603  0.00  0.00    +0.000 NA
ENDBRANCH   2  22
TORSDOF 5
ENDMDL
