MODEL 1
REMARK VINA RESULT:      -6.5      0.000      0.000
REMARK  Name = 
REMARK  3 active torsions:
REMARK  status: ('A' for Active; 'I' for Inactive)
REMARK    1  A    between atoms: O_2  and  C_3
REMARK    2  A    between atoms: C_6  and  C_7
REMARK    3  A    between atoms: C_8  and  C_9
REMARK                            x       y       z     vdW  Elec       q    Type
REMARK                         _______ _______ _______ _____ _____    ______ ____
ROOT
ATOM      1  C   UNL     1      30.952  46.308  62.179  0.00  0.00    +0.000 C 
ATOM      2  C   UNL     1      29.809  45.777  62.572  0.00  0.00    +0.000 C 
ENDROOT
BRANCH   2   3
ATOM      3  C   UNL     1      28.611  46.565  62.823  0.00  0.00    +0.000 A 
ATOM      4  C   UNL     1      28.284  47.568  61.937  0.00  0.00    +0.000 A 
ATOM      5  C   UNL     1      27.171  48.334  62.131  0.00  0.00    +0.000 A 
ATOM      6  O   UNL     1      26.758  49.356  61.309  0.00  0.00    +0.000 OA
ATOM      7  C   UNL     1      26.384  48.067  63.247  0.00  0.00    +0.000 A 
ATOM      8  C   UNL     1      26.682  47.074  64.147  0.00  0.00    +0.000 A 
ATOM      9  O   UNL     1      25.842  46.875  65.231  0.00  0.00    +0.000 OA
ATOM     10  C   UNL     1      27.824  46.313  63.919  0.00  0.00    +0.000 A 
ENDBRANCH   2   3
BRANCH   1  14
ATOM     11  C   UNL     1      34.336  43.815  61.422  0.00  0.00    +0.000 A 
ATOM     12  C   UNL     1      33.101  43.574  60.845  0.00  0.00    +0.000 A 
ATOM     13  C   UNL     1      32.021  44.396  61.105  0.00  0.00    +0.000 A 
ATOM     14  C   UNL     1      32.126  45.474  61.940  0.00  0.00    +0.000 A 
ATOM     15  C   UNL     1      33.349  45.730  62.524  0.00  0.00    +0.000 A 
ATOM     16  C   UNL     1      34.434  44.900  62.258  0.00  0.00    +0.000 A 
BRANCH  11  18
ATOM     17  C   UNL     1      35.360  42.234  59.922  0.00  0.00    +0.000 C 
ATOM     18  O   UNL     1      35.393  42.965  61.133  0.00  0.00    +0.000 OA
ENDBRANCH  11  18
ENDBRANCH   1  14
TORSDOF 3
ENDMDL
MODEL 2
REMARK VINA RESULT:      -6.3      0.586      2.324
REMARK  Name = 
REMARK  3 active torsions:
REMARK  status: ('A' for Active; 'I' for Inactive)
REMARK    1  A    between atoms: O_2  and  C_3
REMARK    2  A    between atoms: C_6  and  C_7
REMARK    3  A    between atoms: C_8  and  C_9
REMARK                            x       y       z     vdW  Elec       q    Type
REMARK                         _______ _______ _______ _____ _____    ______ ____
ROOT
ATOM      1  C   UNL     1      30.893  46.165  62.204  0.00  0.00    +0.000 C 
ATOM      2  C   UNL     1      29.687  45.679  62.432  0.00  0.00    +0.000 C 
ENDROOT
BRANCH   2   3
ATOM      3  C   UNL     1      28.532  46.517  62.719  0.00  0.00    +0.000 A 
ATOM      4  C   UNL     1      27.800  46.263  63.858  0.00  0.00    +0.000 A 
ATOM      5  C   UNL     1      26.709  47.021  64.170  0.00  0.00    +0.000 A 
ATOM      6  O   UNL     1      25.914  46.851  65.278  0.00  0.00    +0.000 OA
ATOM      7  C   UNL     1      26.366  48.054  63.302  0.00  0.00    +0.000 A 
ATOM      8  C   UNL     1      27.075  48.333  62.159  0.00  0.00    +0.000 A 
ATOM      9  O   UNL     1      26.663  49.380  61.351  0.00  0.00    +0.000 OA
ATOM     10  C   UNL     1      28.181  47.539  61.873  0.00  0.00    +0.000 A 
ENDBRANCH   2   3
BRANCH   1  14
ATOM     11  C   UNL     1      34.245  43.635  61.428  0.00  0.00    +0.000 A 
ATOM     12  C   UNL     1      34.339  44.755  62.236  0.00  0.00    +0.000 A 
ATOM     13  C   UNL     1      33.240  45.558  62.473  0.00  0.00    +0.000 A 
ATOM     14  C   UNL     1      32.020  45.282  61.920  0.00  0.00    +0.000 A 
ATOM     15  C   UNL     1      31.905  44.170  61.112  0.00  0.00    +0.000 A 
ATOM     16  C   UNL     1      33.016  43.364  60.877  0.00  0.00    +0.000 A 
BRANCH  11  18
ATOM     17  C   UNL     1      36.383  42.849  62.208  0.00  0.00    +0.000 C 
ATOM     18  O   UNL     1      35.373  42.857  61.217  0.00  0.00    +0.000 OA
ENDBRANCH  11  18
ENDBRANCH   1  14
TORSDOF 3
ENDMDL
MODEL 3
REMARK VINA RESULT:      -6.2     12.597     13.752
REMARK  Name = 
REMARK  3 active torsions:
REMARK  status: ('A' for Active; 'I' for Inactive)
REMARK    1  A    between atoms: O_2  and  C_3
REMARK    2  A    between atoms: C_6  and  C_7
REMARK    3  A    between atoms: C_8  and  C_9
REMARK                            x       y       z     vdW  Elec       q    Type
REMARK                         _______ _______ _______ _____ _____    ______ ____
ROOT
ATOM      1  C   UNL     1      36.153  56.129  57.302  0.00  0.00    +0.000 C 
ATOM      2  C   UNL     1      35.553  57.304  57.335  0.00  0.00    +0.000 C 
ENDROOT
BRANCH   2   3
ATOM      3  C   UNL     1      35.253  58.078  56.139  0.00  0.00    +0.000 A 
ATOM      4  C   UNL     1      36.121  58.006  55.072  0.00  0.00    +0.000 A 
ATOM      5  C   UNL     1      35.882  58.714  53.930  0.00  0.00    +0.000 A 
ATOM      6  O   UNL     1      36.683  58.711  52.813  0.00  0.00    +0.000 OA
ATOM      7  C   UNL     1      34.737  59.504  53.882  0.00  0.00    +0.000 A 
ATOM      8  C   UNL     1      33.852  59.597  54.927  0.00  0.00    +0.000 A 
ATOM      9  O   UNL     1      32.737  60.407  54.795  0.00  0.00    +0.000 OA
ATOM     10  C   UNL     1      34.128  58.862  56.077  0.00  0.00    +0.000 A 
ENDBRANCH   2   3
BRANCH   1  14
ATOM     11  C   UNL     1      36.885  53.992  60.927  0.00  0.00    +0.000 A 
ATOM     12  C   UNL     1      35.688  54.644  60.684  0.00  0.00    +0.000 A 
ATOM     13  C   UNL     1      35.474  55.328  59.504  0.00  0.00    +0.000 A 
ATOM     14  C   UNL     1      36.433  55.391  58.530  0.00  0.00    +0.000 A 
ATOM     15  C   UNL     1      37.632  54.749  58.752  0.00  0.00    +0.000 A 
ATOM     16  C   UNL     1      37.842  54.060  59.944  0.00  0.00    +0.000 A 
BRANCH  11  18
ATOM     17  C   UNL     1      36.142  52.290  62.459  0.00  0.00    +0.000 C 
ATOM     18  O   UNL     1      37.056  53.317  62.126  0.00  0.00    +0.000 OA
ENDBRANCH  11  18
ENDBRANCH   1  14
TORSDOF 3
ENDMDL
MODEL 4
REMARK VINA RESULT:      -6.1     12.596     13.798
REMARK  Name = 
REMARK  3 active torsions:
REMARK  status: ('A' for Active; 'I' for Inactive)
REMARK    1  A    between atoms: O_2  and  C_3
REMARK    2  A    between atoms: C_6  and  C_7
REMARK    3  A    between atoms: C_8  and  C_9
REMARK                            x       y       z     vdW  Elec       q    Type
REMARK                         _______ _______ _______ _____ _____    ______ ____
ROOT
ATOM      1  C   UNL     1      36.178  56.110  57.290  0.00  0.00    +0.000 C 
ATOM      2  C   UNL     1      35.583  57.289  57.314  0.00  0.00    +0.000 C 
ENDROOT
BRANCH   2   3
ATOM      3  C   UNL     1      35.301  58.062  56.114  0.00  0.00    +0.000 A 
ATOM      4  C   UNL     1      34.152  58.821  56.072  0.00  0.00    +0.000 A 
ATOM      5  C   UNL     1      33.845  59.562  54.969  0.00  0.00    +0.000 A 
ATOM      6  O   UNL     1      32.727  60.350  54.828  0.00  0.00    +0.000 OA
ATOM      7  C   UNL     1      34.728  59.524  53.894  0.00  0.00    +0.000 A 
ATOM      8  C   UNL     1      35.882  58.779  53.903  0.00  0.00    +0.000 A 
ATOM      9  O   UNL     1      36.705  58.799  52.789  0.00  0.00    +0.000 OA
ATOM     10  C   UNL     1      36.162  58.035  55.045  0.00  0.00    +0.000 A 
ENDBRANCH   2   3
BRANCH   1  14
ATOM     11  C   UNL     1      36.853  53.974  60.926  0.00  0.00    +0.000 A 
ATOM     12  C   UNL     1      35.652  54.606  60.655  0.00  0.00    +0.000 A 
ATOM     13  C   UNL     1      35.457  55.291  59.472  0.00  0.00    +0.000 A 
ATOM     14  C   UNL     1      36.438  55.373  58.523  0.00  0.00    +0.000 A 
ATOM     15  C   UNL     1      37.642  54.750  58.773  0.00  0.00    +0.000 A 
ATOM     16  C   UNL     1      37.833  54.061  59.968  0.00  0.00    +0.000 A 
BRANCH  11  18
ATOM     17  C   UNL     1      36.068  52.290  62.458  0.00  0.00    +0.000 C 
ATOM     18  O   UNL     1      37.005  53.297  62.127  0.00  0.00    +0.000 OA
ENDBRANCH  11  18
ENDBRANCH   1  14
TORSDOF 3
ENDMDL
MODEL 5
REMARK VINA RESULT:      -6.0     13.029     14.686
REMARK  Name = 
REMARK  3 active torsions:
REMARK  status: ('A' for Active; 'I' for Inactive)
REMARK    1  A    between atoms: O_2  and  C_3
REMARK    2  A    between atoms: C_6  and  C_7
REMARK    3  A    between atoms: C_8  and  C_9
REMARK                            x       y       z     vdW  Elec       q    Type
REMARK                         _______ _______ _______ _____ _____    ______ ____
ROOT
ATOM      1  C   UNL     1      36.114  56.436  56.405  0.00  0.00    +0.000 C 
ATOM      2  C   UNL     1      36.101  56.538  57.721  0.00  0.00    +0.000 C 
ENDROOT
BRANCH   2   3
ATOM      3  C   UNL     1      36.240  55.394  58.610  0.00  0.00    +0.000 A 
ATOM      4  C   UNL     1      37.453  54.743  58.661  0.00  0.00    +0.000 A 
ATOM      5  C   UNL     1      37.631  53.664  59.478  0.00  0.00    +0.000 A 
ATOM      6  O   UNL     1      38.797  52.947  59.603  0.00  0.00    +0.000 OA
ATOM      7  C   UNL     1      36.552  53.249  60.252  0.00  0.00    +0.000 A 
ATOM      8  C   UNL     1      35.330  53.877  60.225  0.00  0.00    +0.000 A 
ATOM      9  O   UNL     1      34.309  53.397  61.028  0.00  0.00    +0.000 OA
ATOM     10  C   UNL     1      35.184  54.972  59.379  0.00  0.00    +0.000 A 
ENDBRANCH   2   3
BRANCH   1  14
ATOM     11  C   UNL     1      35.619  59.910  53.972  0.00  0.00    +0.000 A 
ATOM     12  C   UNL     1      34.749  59.604  55.004  0.00  0.00    +0.000 A 
ATOM     13  C   UNL     1      34.931  58.474  55.778  0.00  0.00    +0.000 A 
ATOM     14  C   UNL     1      35.971  57.615  55.557  0.00  0.00    +0.000 A 
ATOM     15  C   UNL     1      36.849  57.903  54.533  0.00  0.00    +0.000 A 
ATOM     16  C   UNL     1      36.662  59.043  53.757  0.00  0.00    +0.000 A 
BRANCH  11  18
ATOM     17  C   UNL     1      35.189  62.278  53.899  0.00  0.00    +0.000 C 
ATOM     18  O   UNL     1      35.400  61.055  53.220  0.00  0.00    +0.000 OA
ENDBRANCH  11  18
ENDBRANCH   1  14
TORSDOF 3
ENDMDL
MODEL 6
REMARK VINA RESULT:      -6.0     13.114     14.812
REMARK  Name = 
REMARK  3 active torsions:
REMARK  status: ('A' for Active; 'I' for Inactive)
REMARK    1  A    between atoms: O_2  and  C_3
REMARK    2  A    between atoms: C_6  and  C_7
REMARK    3  A    between atoms: C_8  and  C_9
REMARK                            x       y       z     vdW  Elec       q    Type
REMARK                         _______ _______ _______ _____ _____    ______ ____
ROOT
ATOM      1  C   UNL     1      36.362  56.616  56.388  0.00  0.00    +0.000 C 
ATOM      2  C   UNL     1      35.919  56.561  57.631  0.00  0.00    +0.000 C 
ENDROOT
BRANCH   2   3
ATOM      3  C   UNL     1      36.130  55.414  58.501  0.00  0.00    +0.000 A 
ATOM      4  C   UNL     1      35.095  55.002  59.312  0.00  0.00    +0.000 A 
ATOM      5  C   UNL     1      35.246  53.932  60.146  0.00  0.00    +0.000 A 
ATOM      6  O   UNL     1      34.279  53.443  60.991  0.00  0.00    +0.000 OA
ATOM      7  C   UNL     1      36.473  53.276  60.146  0.00  0.00    +0.000 A 
ATOM      8  C   UNL     1      37.524  53.661  59.349  0.00  0.00    +0.000 A 
ATOM      9  O   UNL     1      38.712  52.951  59.413  0.00  0.00    +0.000 OA
ATOM     10  C   UNL     1      37.335  54.757  58.513  0.00  0.00    +0.000 A 
ENDBRANCH   2   3
BRANCH   1  14
ATOM     11  C   UNL     1      35.582  60.064  53.991  0.00  0.00    +0.000 A 
ATOM     12  C   UNL     1      34.674  59.596  54.925  0.00  0.00    +0.000 A 
ATOM     13  C   UNL     1      34.950  58.478  55.689  0.00  0.00    +0.000 A 
ATOM     14  C   UNL     1      36.124  57.790  55.555  0.00  0.00    +0.000 A 
ATOM     15  C   UNL     1      37.042  58.241  54.630  0.00  0.00    +0.000 A 
ATOM     16  C   UNL     1      36.760  59.368  53.863  0.00  0.00    +0.000 A 
BRANCH  11  18
ATOM     17  C   UNL     1      35.229  62.444  53.899  0.00  0.00    +0.000 C 
ATOM     18  O   UNL     1      35.265  61.189  53.246  0.00  0.00    +0.000 OA
ENDBRANCH  11  18
ENDBRANCH   1  14
TORSDOF 3
ENDMDL
MODEL 7
REMARK VINA RESULT:      -6.0      3.003      3.487
REMARK  Name = 
REMARK  3 active torsions:
REMARK  status: ('A' for Active; 'I' for Inactive)
REMARK    1  A    between atoms: O_2  and  C_3
REMARK    2  A    between atoms: C_6  and  C_7
REMARK    3  A    between atoms: C_8  and  C_9
REMARK                            x       y       z     vdW  Elec       q    Type
REMARK                         _______ _______ _______ _____ _____    ______ ____
ROOT
ATOM      1  C   UNL     1      28.296  44.013  62.251  0.00  0.00    +0.000 C 
ATOM      2  C   UNL     1      28.619  45.050  63.001  0.00  0.00    +0.000 C 
ENDROOT
BRANCH   2   3
ATOM      3  C   UNL     1      27.813  46.259  63.076  0.00  0.00    +0.000 A 
ATOM      4  C   UNL     1      27.804  47.114  61.996  0.00  0.00    +0.000 A 
ATOM      5  C   UNL     1      27.064  48.260  62.019  0.00  0.00    +0.000 A 
ATOM      6  O   UNL     1      26.987  49.176  60.997  0.00  0.00    +0.000 OA
ATOM      7  C   UNL     1      26.323  48.532  63.165  0.00  0.00    +0.000 A 
ATOM      8  C   UNL     1      26.310  47.701  64.259  0.00  0.00    +0.000 A 
ATOM      9  O   UNL     1      25.544  48.049  65.359  0.00  0.00    +0.000 OA
ATOM     10  C   UNL     1      27.077  46.542  64.200  0.00  0.00    +0.000 A 
ENDBRANCH   2   3
BRANCH   1  14
ATOM     11  C   UNL     1      30.684  40.474  62.150  0.00  0.00    +0.000 A 
ATOM     12  C   UNL     1      29.325  40.437  62.407  0.00  0.00    +0.000 A 
ATOM     13  C   UNL     1      28.573  41.596  62.434  0.00  0.00    +0.000 A 
ATOM     14  C   UNL     1      29.138  42.821  62.210  0.00  0.00    +0.000 A 
ATOM     15  C   UNL     1      30.491  42.878  61.952  0.00  0.00    +0.000 A 
ATOM     16  C   UNL     1      31.244  41.708  61.926  0.00  0.00    +0.000 A 
BRANCH  11  18
ATOM     17  C   UNL     1      31.153  38.333  63.148  0.00  0.00    +0.000 C 
ATOM     18  O   UNL     1      31.400  39.286  62.132  0.00  0.00    +0.000 OA
ENDBRANCH  11  18
ENDBRANCH   1  14
TORSDOF 3
ENDMDL
MODEL 8
REMARK VINA RESULT:      -6.0      1.319      7.841
REMARK  Name = 
REMARK  3 active torsions:
REMARK  status: ('A' for Active; 'I' for Inactive)
REMARK    1  A    between atoms: O_2  and  C_3
REMARK    2  A    between atoms: C_6  and  C_7
REMARK    3  A    between atoms: C_8  and  C_9
REMARK                            x       y       z     vdW  Elec       q    Type
REMARK                         _______ _______ _______ _____ _____    ______ ____
ROOT
ATOM      1  C   UNL     1      30.701  46.114  62.192  0.00  0.00    +0.000 C 
ATOM      2  C   UNL     1      30.891  44.861  61.821  0.00  0.00    +0.000 C 
ENDROOT
BRANCH   2   3
ATOM      3  C   UNL     1      32.178  44.352  61.372  0.00  0.00    +0.000 A 
ATOM      4  C   UNL     1      33.287  44.573  62.159  0.00  0.00    +0.000 A 
ATOM      5  C   UNL     1      34.515  44.115  61.780  0.00  0.00    +0.000 A 
ATOM      6  O   UNL     1      35.679  44.282  62.492  0.00  0.00    +0.000 OA
ATOM      7  C   UNL     1      34.607  43.421  60.577  0.00  0.00    +0.000 A 
ATOM      8  C   UNL     1      33.522  43.184  59.769  0.00  0.00    +0.000 A 
ATOM      9  O   UNL     1      33.703  42.484  58.588  0.00  0.00    +0.000 OA
ATOM     10  C   UNL     1      32.285  43.666  60.187  0.00  0.00    +0.000 A 
ENDBRANCH   2   3
BRANCH   1  14
ATOM     11  C   UNL     1      26.867  47.536  63.424  0.00  0.00    +0.000 A 
ATOM     12  C   UNL     1      27.575  48.127  62.391  0.00  0.00    +0.000 A 
ATOM     13  C   UNL     1      28.813  47.648  62.011  0.00  0.00    +0.000 A 
ATOM     14  C   UNL     1      29.390  46.577  62.636  0.00  0.00    +0.000 A 
ATOM     15  C   UNL     1      28.700  45.975  63.667  0.00  0.00    +0.000 A 
ATOM     16  C   UNL     1      27.452  46.461  64.046  0.00  0.00    +0.000 A 
BRANCH  11  18
ATOM     17  C   UNL     1      25.393  48.388  65.126  0.00  0.00    +0.000 C 
ATOM     18  O   UNL     1      25.627  48.049  63.773  0.00  0.00    +0.000 OA
ENDBRANCH  11  18
ENDBRANCH   1  14
TORSDOF 3
ENDMDL
MODEL 9
REMARK VINA RESULT:      -5.9      2.919      3.881
REMARK  Name = 
REMARK  3 active torsions:
REMARK  status: ('A' for Active; 'I' for Inactive)
REMARK    1  A    between atoms: O_2  and  C_3
REMARK    2  A    between atoms: C_6  and  C_7
REMARK    3  A    between atoms: C_8  and  C_9
REMARK                            x       y       z     vdW  Elec       q    Type
REMARK                         _______ _______ _______ _____ _____    ______ ____
ROOT
ATOM      1  C   UNL     1      28.274  44.031  62.192  0.00  0.00    +0.000 C 
ATOM      2  C   UNL     1      28.536  45.017  63.029  0.00  0.00    +0.000 C 
ENDROOT
BRANCH   2   3
ATOM      3  C   UNL     1      27.768  46.252  63.068  0.00  0.00    +0.000 A 
ATOM      4  C   UNL     1      27.038  46.540  64.201  0.00  0.00    +0.000 A 
ATOM      5  C   UNL     1      26.301  47.686  64.284  0.00  0.00    +0.000 A 
ATOM      6  O   UNL     1      25.542  48.064  65.365  0.00  0.00    +0.000 OA
ATOM      7  C   UNL     1      26.314  48.548  63.191  0.00  0.00    +0.000 A 
ATOM      8  C   UNL     1      27.031  48.291  62.048  0.00  0.00    +0.000 A 
ATOM      9  O   UNL     1      26.988  49.204  61.007  0.00  0.00    +0.000 OA
ATOM     10  C   UNL     1      27.770  47.113  61.998  0.00  0.00    +0.000 A 
ENDBRANCH   2   3
BRANCH   1  14
ATOM     11  C   UNL     1      30.539  40.410  62.214  0.00  0.00    +0.000 A 
ATOM     12  C   UNL     1      29.184  40.433  62.494  0.00  0.00    +0.000 A 
ATOM     13  C   UNL     1      28.472  41.617  62.480  0.00  0.00    +0.000 A 
ATOM     14  C   UNL     1      29.075  42.810  62.192  0.00  0.00    +0.000 A 
ATOM     15  C   UNL     1      30.424  42.809  61.910  0.00  0.00    +0.000 A 
ATOM     16  C   UNL     1      31.137  41.613  61.925  0.00  0.00    +0.000 A 
BRANCH  11  18
ATOM     17  C   UNL     1      32.628  39.213  62.200  0.00  0.00    +0.000 C 
ATOM     18  O   UNL     1      31.214  39.199  62.239  0.00  0.00    +0.000 OA
ENDBRANCH  11  18
ENDBRANCH   1  14
TORSDOF 3
ENDMDL
MODEL 10
REMARK VINA RESULT:      -5.9     12.147     13.936
REMARK  Name = 
REMARK  3 active torsions:
REMARK  status: ('A' for Active; 'I' for Inactive)
REMARK    1  A    between atoms: O_2  and  C_3
REMARK    2  A    between atoms: C_6  and  C_7
REMARK    3  A    between atoms: C_8  and  C_9
REMARK                            x       y       z     vdW  Elec       q    Type
REMARK                         _______ _______ _______ _____ _____    ______ ____
ROOT
ATOM      1  C   UNL     1      36.032  56.567  58.352  0.00  0.00    +0.000 C 
ATOM      2  C   UNL     1      36.373  55.293  58.311  0.00  0.00    +0.000 C 
ENDROOT
BRANCH   2   3
ATOM      3  C   UNL     1      36.661  54.508  59.502  0.00  0.00    +0.000 A 
ATOM      4  C   UNL     1      35.613  53.912  60.168  0.00  0.00    +0.000 A 
ATOM      5  C   UNL     1      35.833  53.167  61.290  0.00  0.00    +0.000 A 
ATOM      6  O   UNL     1      34.860  52.533  62.025  0.00  0.00    +0.000 OA
ATOM      7  C   UNL     1      37.145  53.031  61.733  0.00  0.00    +0.000 A 
ATOM      8  C   UNL     1      38.212  53.611  61.092  0.00  0.00    +0.000 A 
ATOM      9  O   UNL     1      39.486  53.425  61.602  0.00  0.00    +0.000 OA
ATOM     10  C   UNL     1      37.950  54.365  59.952  0.00  0.00    +0.000 A 
ENDBRANCH   2   3
BRANCH   1  14
ATOM     11  C   UNL     1      35.278  58.693  54.725  0.00  0.00    +0.000 A 
ATOM     12  C   UNL     1      36.202  57.665  54.798  0.00  0.00    +0.000 A 
ATOM     13  C   UNL     1      36.428  56.992  55.982  0.00  0.00    +0.000 A 
ATOM     14  C   UNL     1      35.752  57.312  57.128  0.00  0.00    +0.000 A 
ATOM     15  C   UNL     1      34.828  58.333  57.076  0.00  0.00    +0.000 A 
ATOM     16  C   UNL     1      34.603  59.008  55.879  0.00  0.00    +0.000 A 
BRANCH  11  18
ATOM     17  C   UNL     1      35.250  60.746  53.467  0.00  0.00    +0.000 C 
ATOM     18  O   UNL     1      35.082  59.342  53.515  0.00  0.00    +0.000 OA
ENDBRANCH  11  18
ENDBRANCH   1  14
TORSDOF 3
ENDMDL
