REMARK  Name = 
REMARK  6 active torsions:
REMARK  status: ('A' for Active; 'I' for Inactive)
REMARK    1  A    between atoms: O_2  and  C_3
REMARK    2  A    between atoms: C_8  and  O_9
REMARK    3  A    between atoms: C_12  and  C_13
REMARK    4  A    between atoms: C_15  and  O_16
REMARK    5  A    between atoms: C_18  and  O_19
REMARK    6  A    between atoms: C_21  and  O_22
REMARK                            x       y       z     vdW  Elec       q    Type
REMARK                         _______ _______ _______ _____ _____    ______ ____
ROOT
ATOM      1  C   UNL     1      -4.891  -0.901   0.068  0.00  0.00    +0.000 A 
ATOM      2  C   UNL     1      -4.074  -1.303   1.086  0.00  0.00    +0.000 A 
ATOM      3  C   UNL     1      -2.731  -1.022   0.990  0.00  0.00    +0.000 A 
ATOM      4  C   UNL     1      -2.164  -0.359  -0.071  0.00  0.00    +0.000 A 
ATOM      5  C   UNL     1      -2.993   0.044  -1.095  0.00  0.00    +0.000 A 
ATOM      6  C   UNL     1      -4.368  -0.231  -1.021  0.00  0.00    +0.000 A 
ATOM      7  C   UNL     1      -0.706  -0.211   0.123  0.00  0.00    +0.000 C 
ATOM      8  C   UNL     1       0.163   0.341  -0.670  0.00  0.00    +0.000 C 
ATOM      9  C   UNL     1      -0.428  -0.844   1.400  0.00  0.00    +0.000 C 
ATOM     10  O   UNL     1       0.682  -0.949   1.955  0.00  0.00    +0.000 OA
ATOM     11  N   UNL     1      -1.685  -1.324   1.896  0.00  0.00    +0.000 NA
ENDROOT
BRANCH   8  12
ATOM     12  C   UNL     1       1.584   0.463  -0.432  0.00  0.00    +0.000 A 
ATOM     13  C   UNL     1       2.158   0.855   0.751  0.00  0.00    +0.000 A 
ATOM     14  C   UNL     1       3.508   0.967   0.982  0.00  0.00    +0.000 A 
ATOM     15  C   UNL     1       4.360   0.665  -0.049  0.00  0.00    +0.000 A 
ATOM     16  C   UNL     1       3.865   0.263  -1.270  0.00  0.00    +0.000 A 
ATOM     17  C   UNL     1       2.487   0.161  -1.465  0.00  0.00    +0.000 A 
BRANCH  14  18
ATOM     18  O   UNL     1       4.000   1.369   2.203  0.00  0.00    +0.000 OA
ATOM     19  C   UNL     1       3.078   1.670   3.234  0.00  0.00    +0.000 C 
ENDBRANCH  14  18
BRANCH  15  20
ATOM     20  O   UNL     1       5.714   0.768   0.153  0.00  0.00    +0.000 OA
ATOM     21  C   UNL     1       6.378   2.006  -0.122  0.00  0.00    +0.000 C 
ENDBRANCH  15  20
BRANCH  16  22
ATOM     22  O   UNL     1       4.776  -0.030  -2.278  0.00  0.00    +0.000 OA
ATOM     23  C   UNL     1       4.260  -0.443  -3.527  0.00  0.00    +0.000 C 
ENDBRANCH  16  22
ENDBRANCH   8  12
BRANCH   1  25
ATOM     24  C   UNL     1      -6.780  -1.838   1.209  0.00  0.00    +0.000 C 
ATOM     25  O   UNL     1      -6.268  -1.150   0.087  0.00  0.00    +0.000 OA
ENDBRANCH   1  25
BRANCH   6  26
ATOM     26  O   UNL     1      -5.209   0.175  -2.055  0.00  0.00    +0.000 OA
ATOM     27  C   UNL     1      -4.715   0.857  -3.178  0.00  0.00    +0.000 C 
ENDBRANCH   6  26
TORSDOF 6
