REMARK  Name = 
REMARK  6 active torsions:
REMARK  status: ('A' for Active; 'I' for Inactive)
REMARK    1  A    between atoms: O_2  and  C_3
REMARK    2  A    between atoms: C_6  and  C_7
REMARK    3  A    between atoms: C_8  and  C_9
REMARK    4  A    between atoms: C_11  and  O_12
REMARK    5  A    between atoms: C_14  and  O_15
REMARK    6  A    between atoms: C_17  and  O_18
REMARK                            x       y       z     vdW  Elec       q    Type
REMARK                         _______ _______ _______ _____ _____    ______ ____
ROOT
ATOM      1  C   UNL     1       1.054   2.596  -0.277  0.00  0.00    +0.000 C 
ATOM      2  C   UNL     1      -0.178   2.579  -0.520  0.00  0.00    +0.000 C 
ENDROOT
BRANCH   1   6
ATOM      3  C   UNL     1       3.694  -0.520   0.984  0.00  0.00    +0.000 A 
ATOM      4  C   UNL     1       3.618   0.685   1.647  0.00  0.00    +0.000 A 
ATOM      5  C   UNL     1       2.736   1.647   1.254  0.00  0.00    +0.000 A 
ATOM      6  C   UNL     1       1.849   1.507   0.173  0.00  0.00    +0.000 A 
ATOM      7  C   UNL     1       1.938   0.301  -0.483  0.00  0.00    +0.000 A 
ATOM      8  O   UNL     1       1.167  -0.043  -1.600  0.00  0.00    +0.000 OA
ATOM      9  C   UNL     1       2.844  -0.694  -0.081  0.00  0.00    +0.000 A 
ATOM     10  O   UNL     1       2.918  -1.920  -0.758  0.00  0.00    +0.000 OA
BRANCH   3  12
ATOM     11  C   UNL     1       5.464  -1.362   2.454  0.00  0.00    +0.000 C 
ATOM     12  O   UNL     1       4.582  -1.521   1.363  0.00  0.00    +0.000 OA
ENDBRANCH   3  12
ENDBRANCH   1   6
BRANCH   2  13
ATOM     13  C   UNL     1      -1.069   1.476  -0.378  0.00  0.00    +0.000 A 
ATOM     14  C   UNL     1      -0.879   0.287   0.279  0.00  0.00    +0.000 A 
ATOM     15  C   UNL     1      -1.804  -0.731   0.347  0.00  0.00    +0.000 A 
ATOM     16  C   UNL     1      -3.030  -0.600  -0.271  0.00  0.00    +0.000 A 
ATOM     17  C   UNL     1      -3.258   0.581  -0.941  0.00  0.00    +0.000 A 
ATOM     18  C   UNL     1      -2.325   1.590  -1.001  0.00  0.00    +0.000 A 
BRANCH  15  19
ATOM     19  O   UNL     1      -1.552  -1.914   1.029  0.00  0.00    +0.000 OA
ATOM     20  C   UNL     1      -0.349  -2.180   1.702  0.00  0.00    +0.000 C 
ENDBRANCH  15  19
BRANCH  16  21
ATOM     21  O   UNL     1      -3.961  -1.625  -0.202  0.00  0.00    +0.000 OA
ATOM     22  C   UNL     1      -4.058  -2.669  -1.121  0.00  0.00    +0.000 C 
ENDBRANCH  16  21
BRANCH  17  23
ATOM     23  O   UNL     1      -4.502   0.691  -1.558  0.00  0.00    +0.000 OA
ATOM     24  C   UNL     1      -4.898   1.839  -2.288  0.00  0.00    +0.000 C 
ENDBRANCH  17  23
ENDBRANCH   2  13
TORSDOF 6
