MODEL 1
REMARK VINA RESULT:      -5.8      0.000      0.000
REMARK  Name = 
REMARK  7 active torsions:
REMARK  status: ('A' for Active; 'I' for Inactive)
REMARK    1  A    between atoms: O_2  and  C_3
REMARK    2  A    between atoms: C_6  and  C_7
REMARK    3  A    between atoms: C_7  and  N_21
REMARK    4  A    between atoms: C_8  and  C_9
REMARK    5  A    between atoms: C_11  and  O_12
REMARK    6  A    between atoms: C_14  and  O_15
REMARK    7  A    between atoms: C_17  and  O_18
REMARK                            x       y       z     vdW  Elec       q    Type
REMARK                         _______ _______ _______ _____ _____    ______ ____
ROOT
ATOM      1  C   UNL     1      35.821  56.415  58.192  0.00  0.00    +0.000 C 
ATOM      2  C   UNL     1      36.342  55.326  57.682  0.00  0.00    +0.000 C 
ENDROOT
BRANCH   1   6
ATOM      3  C   UNL     1      33.987  59.473  55.804  0.00  0.00    +0.000 A 
ATOM      4  C   UNL     1      35.085  58.770  55.364  0.00  0.00    +0.000 A 
ATOM      5  C   UNL     1      35.673  57.792  56.124  0.00  0.00    +0.000 A 
ATOM      6  C   UNL     1      35.200  57.456  57.372  0.00  0.00    +0.000 A 
ATOM      7  C   UNL     1      34.090  58.156  57.837  0.00  0.00    +0.000 A 
ATOM      8  C   UNL     1      33.506  59.137  57.064  0.00  0.00    +0.000 A 
BRANCH   3  10
ATOM      9  C   UNL     1      31.989  60.653  55.130  0.00  0.00    +0.000 C 
ATOM     10  O   UNL     1      33.378  60.470  55.042  0.00  0.00    +0.000 OA
ENDBRANCH   3  10
ENDBRANCH   1   6
BRANCH   2  11
ATOM     11  C   UNL     1      36.967  54.273  58.471  0.00  0.00    +0.000 A 
ATOM     12  C   UNL     1      36.244  53.140  58.773  0.00  0.00    +0.000 A 
ATOM     13  C   UNL     1      36.731  52.085  59.509  0.00  0.00    +0.000 A 
ATOM     14  C   UNL     1      38.031  52.172  59.976  0.00  0.00    +0.000 A 
ATOM     15  C   UNL     1      38.785  53.297  59.691  0.00  0.00    +0.000 A 
ATOM     16  C   UNL     1      38.260  54.336  58.948  0.00  0.00    +0.000 A 
BRANCH  13  17
ATOM     17  O   UNL     1      35.944  50.956  59.784  0.00  0.00    +0.000 OA
ATOM     18  C   UNL     1      34.570  51.012  59.447  0.00  0.00    +0.000 C 
ENDBRANCH  13  17
BRANCH  14  19
ATOM     19  O   UNL     1      38.515  51.107  60.718  0.00  0.00    +0.000 OA
ATOM     20  C   UNL     1      39.203  50.054  60.069  0.00  0.00    +0.000 C 
ENDBRANCH  14  19
BRANCH  15  21
ATOM     21  O   UNL     1      40.082  53.364  60.167  0.00  0.00    +0.000 OA
ATOM     22  C   UNL     1      41.210  53.224  59.330  0.00  0.00    +0.000 C 
ENDBRANCH  15  21
ENDBRANCH   2  11
BRANCH   1  23
ATOM     23  N   UNL     1      35.847  56.617  59.597  0.00  0.00    +0.000 N 
ATOM     24  O   UNL     1      36.747  57.353  60.080  0.00  0.00    +0.000 OA
ATOM     25  O   UNL     1      34.932  56.045  60.460  0.00  0.00    +0.000 OA
ENDBRANCH   1  23
TORSDOF 7
ENDMDL
MODEL 2
REMARK VINA RESULT:      -5.8      1.453      1.904
REMARK  Name = 
REMARK  7 active torsions:
REMARK  status: ('A' for Active; 'I' for Inactive)
REMARK    1  A    between atoms: O_2  and  C_3
REMARK    2  A    between atoms: C_6  and  C_7
REMARK    3  A    between atoms: C_7  and  N_21
REMARK    4  A    between atoms: C_8  and  C_9
REMARK    5  A    between atoms: C_11  and  O_12
REMARK    6  A    between atoms: C_14  and  O_15
REMARK    7  A    between atoms: C_17  and  O_18
REMARK                            x       y       z     vdW  Elec       q    Type
REMARK                         _______ _______ _______ _____ _____    ______ ____
ROOT
ATOM      1  C   UNL     1      36.034  56.518  57.840  0.00  0.00    +0.000 C 
ATOM      2  C   UNL     1      36.447  55.282  57.699  0.00  0.00    +0.000 C 
ENDROOT
BRANCH   1   6
ATOM      3  C   UNL     1      35.224  59.078  54.492  0.00  0.00    +0.000 A 
ATOM      4  C   UNL     1      34.562  59.218  55.690  0.00  0.00    +0.000 A 
ATOM      5  C   UNL     1      34.818  58.402  56.762  0.00  0.00    +0.000 A 
ATOM      6  C   UNL     1      35.753  57.395  56.702  0.00  0.00    +0.000 A 
ATOM      7  C   UNL     1      36.436  57.235  55.499  0.00  0.00    +0.000 A 
ATOM      8  C   UNL     1      36.170  58.062  54.428  0.00  0.00    +0.000 A 
BRANCH   3  10
ATOM      9  C   UNL     1      35.289  61.267  53.470  0.00  0.00    +0.000 C 
ATOM     10  O   UNL     1      34.974  59.902  53.394  0.00  0.00    +0.000 OA
ENDBRANCH   3  10
ENDBRANCH   1   6
BRANCH   2  11
ATOM     11  C   UNL     1      36.736  54.386  58.810  0.00  0.00    +0.000 A 
ATOM     12  C   UNL     1      35.756  53.524  59.251  0.00  0.00    +0.000 A 
ATOM     13  C   UNL     1      35.917  52.637  60.290  0.00  0.00    +0.000 A 
ATOM     14  C   UNL     1      37.144  52.612  60.931  0.00  0.00    +0.000 A 
ATOM     15  C   UNL     1      38.150  53.465  60.512  0.00  0.00    +0.000 A 
ATOM     16  C   UNL     1      37.949  54.343  59.465  0.00  0.00    +0.000 A 
BRANCH  13  17
ATOM     17  O   UNL     1      34.879  51.783  60.693  0.00  0.00    +0.000 OA
ATOM     18  C   UNL     1      34.689  50.585  59.963  0.00  0.00    +0.000 C 
ENDBRANCH  13  17
BRANCH  14  19
ATOM     19  O   UNL     1      37.299  51.716  61.976  0.00  0.00    +0.000 OA
ATOM     20  C   UNL     1      36.980  52.115  63.296  0.00  0.00    +0.000 C 
ENDBRANCH  14  19
BRANCH  15  21
ATOM     21  O   UNL     1      39.368  53.424  61.167  0.00  0.00    +0.000 OA
ATOM     22  C   UNL     1      40.568  53.870  60.573  0.00  0.00    +0.000 C 
ENDBRANCH  15  21
ENDBRANCH   2  11
BRANCH   1  23
ATOM     23  N   UNL     1      35.844  57.052  59.141  0.00  0.00    +0.000 N 
ATOM     24  O   UNL     1      36.777  57.724  59.655  0.00  0.00    +0.000 OA
ATOM     25  O   UNL     1      34.684  56.872  59.871  0.00  0.00    +0.000 OA
ENDBRANCH   1  23
TORSDOF 7
ENDMDL
MODEL 3
REMARK VINA RESULT:      -5.7      3.198      8.459
REMARK  Name = 
REMARK  7 active torsions:
REMARK  status: ('A' for Active; 'I' for Inactive)
REMARK    1  A    between atoms: O_2  and  C_3
REMARK    2  A    between atoms: C_6  and  C_7
REMARK    3  A    between atoms: C_7  and  N_21
REMARK    4  A    between atoms: C_8  and  C_9
REMARK    5  A    between atoms: C_11  and  O_12
REMARK    6  A    between atoms: C_14  and  O_15
REMARK    7  A    between atoms: C_17  and  O_18
REMARK                            x       y       z     vdW  Elec       q    Type
REMARK                         _______ _______ _______ _____ _____    ______ ____
ROOT
ATOM      1  C   UNL     1      40.318  52.191  59.923  0.00  0.00    +0.000 C 
ATOM      2  C   UNL     1      39.483  51.890  58.960  0.00  0.00    +0.000 C 
ENDROOT
BRANCH   1   6
ATOM      3  C   UNL     1      44.353  50.734  60.025  0.00  0.00    +0.000 A 
ATOM      4  C   UNL     1      43.537  50.688  61.132  0.00  0.00    +0.000 A 
ATOM      5  C   UNL     1      42.247  51.152  61.102  0.00  0.00    +0.000 A 
ATOM      6  C   UNL     1      41.694  51.692  59.965  0.00  0.00    +0.000 A 
ATOM      7  C   UNL     1      42.502  51.748  58.833  0.00  0.00    +0.000 A 
ATOM      8  C   UNL     1      43.798  51.277  58.873  0.00  0.00    +0.000 A 
BRANCH   3  10
ATOM      9  C   UNL     1      46.613  50.888  60.867  0.00  0.00    +0.000 C 
ATOM     10  O   UNL     1      45.667  50.264  60.040  0.00  0.00    +0.000 OA
ENDBRANCH   3  10
ENDBRANCH   1   6
BRANCH   2  11
ATOM     11  C   UNL     1      38.109  52.369  58.891  0.00  0.00    +0.000 A 
ATOM     12  C   UNL     1      37.079  51.504  59.190  0.00  0.00    +0.000 A 
ATOM     13  C   UNL     1      35.747  51.847  59.158  0.00  0.00    +0.000 A 
ATOM     14  C   UNL     1      35.425  53.144  58.800  0.00  0.00    +0.000 A 
ATOM     15  C   UNL     1      36.436  54.039  58.493  0.00  0.00    +0.000 A 
ATOM     16  C   UNL     1      37.762  53.656  58.537  0.00  0.00    +0.000 A 
BRANCH  13  17
ATOM     17  O   UNL     1      34.743  50.919  59.474  0.00  0.00    +0.000 OA
ATOM     18  C   UNL     1      34.893  50.163  60.662  0.00  0.00    +0.000 C 
ENDBRANCH  13  17
BRANCH  14  19
ATOM     19  O   UNL     1      34.082  53.482  58.769  0.00  0.00    +0.000 OA
ATOM     20  C   UNL     1      33.492  54.124  59.883  0.00  0.00    +0.000 C 
ENDBRANCH  14  19
BRANCH  15  21
ATOM     21  O   UNL     1      36.092  55.331  58.138  0.00  0.00    +0.000 OA
ATOM     22  C   UNL     1      36.457  56.456  58.907  0.00  0.00    +0.000 C 
ENDBRANCH  15  21
ENDBRANCH   2  11
BRANCH   1  23
ATOM     23  N   UNL     1      39.896  53.036  60.983  0.00  0.00    +0.000 N 
ATOM     24  O   UNL     1      40.245  54.245  60.961  0.00  0.00    +0.000 OA
ATOM     25  O   UNL     1      39.121  52.595  62.039  0.00  0.00    +0.000 OA
ENDBRANCH   1  23
TORSDOF 7
ENDMDL
MODEL 4
REMARK VINA RESULT:      -5.7      1.422      3.138
REMARK  Name = 
REMARK  7 active torsions:
REMARK  status: ('A' for Active; 'I' for Inactive)
REMARK    1  A    between atoms: O_2  and  C_3
REMARK    2  A    between atoms: C_6  and  C_7
REMARK    3  A    between atoms: C_7  and  N_21
REMARK    4  A    between atoms: C_8  and  C_9
REMARK    5  A    between atoms: C_11  and  O_12
REMARK    6  A    between atoms: C_14  and  O_15
REMARK    7  A    between atoms: C_17  and  O_18
REMARK                            x       y       z     vdW  Elec       q    Type
REMARK                         _______ _______ _______ _____ _____    ______ ____
ROOT
ATOM      1  C   UNL     1      35.986  56.529  57.865  0.00  0.00    +0.000 C 
ATOM      2  C   UNL     1      36.397  55.293  57.726  0.00  0.00    +0.000 C 
ENDROOT
BRANCH   1   6
ATOM      3  C   UNL     1      35.219  59.099  54.515  0.00  0.00    +0.000 A 
ATOM      4  C   UNL     1      34.536  59.231  55.702  0.00  0.00    +0.000 A 
ATOM      5  C   UNL     1      34.779  58.411  56.775  0.00  0.00    +0.000 A 
ATOM      6  C   UNL     1      35.720  57.410  56.727  0.00  0.00    +0.000 A 
ATOM      7  C   UNL     1      36.424  57.259  55.535  0.00  0.00    +0.000 A 
ATOM      8  C   UNL     1      36.172  58.089  54.463  0.00  0.00    +0.000 A 
BRANCH   3  10
ATOM      9  C   UNL     1      35.309  61.289  53.497  0.00  0.00    +0.000 C 
ATOM     10  O   UNL     1      34.984  59.926  53.417  0.00  0.00    +0.000 OA
ENDBRANCH   3  10
ENDBRANCH   1   6
BRANCH   2  11
ATOM     11  C   UNL     1      36.672  54.393  58.838  0.00  0.00    +0.000 A 
ATOM     12  C   UNL     1      37.920  54.408  59.422  0.00  0.00    +0.000 A 
ATOM     13  C   UNL     1      38.290  53.604  60.475  0.00  0.00    +0.000 A 
ATOM     14  C   UNL     1      37.347  52.724  60.976  0.00  0.00    +0.000 A 
ATOM     15  C   UNL     1      36.084  52.684  60.412  0.00  0.00    +0.000 A 
ATOM     16  C   UNL     1      35.750  53.508  59.355  0.00  0.00    +0.000 A 
BRANCH  13  17
ATOM     17  O   UNL     1      39.579  53.666  61.028  0.00  0.00    +0.000 OA
ATOM     18  C   UNL     1      40.682  53.568  60.144  0.00  0.00    +0.000 C 
ENDBRANCH  13  17
BRANCH  14  19
ATOM     19  O   UNL     1      37.727  51.917  62.036  0.00  0.00    +0.000 OA
ATOM     20  C   UNL     1      37.459  52.327  63.363  0.00  0.00    +0.000 C 
ENDBRANCH  14  19
BRANCH  15  21
ATOM     21  O   UNL     1      35.156  51.797  60.928  0.00  0.00    +0.000 OA
ATOM     22  C   UNL     1      34.900  50.536  60.347  0.00  0.00    +0.000 C 
ENDBRANCH  15  21
ENDBRANCH   2  11
BRANCH   1  23
ATOM     23  N   UNL     1      35.783  57.061  59.166  0.00  0.00    +0.000 N 
ATOM     24  O   UNL     1      36.709  57.734  59.690  0.00  0.00    +0.000 OA
ATOM     25  O   UNL     1      34.617  56.877  59.884  0.00  0.00    +0.000 OA
ENDBRANCH   1  23
TORSDOF 7
ENDMDL
MODEL 5
REMARK VINA RESULT:      -5.7      1.911      8.415
REMARK  Name = 
REMARK  7 active torsions:
REMARK  status: ('A' for Active; 'I' for Inactive)
REMARK    1  A    between atoms: O_2  and  C_3
REMARK    2  A    between atoms: C_6  and  C_7
REMARK    3  A    between atoms: C_7  and  N_21
REMARK    4  A    between atoms: C_8  and  C_9
REMARK    5  A    between atoms: C_11  and  O_12
REMARK    6  A    between atoms: C_14  and  O_15
REMARK    7  A    between atoms: C_17  and  O_18
REMARK                            x       y       z     vdW  Elec       q    Type
REMARK                         _______ _______ _______ _____ _____    ______ ____
ROOT
ATOM      1  C   UNL     1      36.190  56.239  57.926  0.00  0.00    +0.000 C 
ATOM      2  C   UNL     1      36.306  56.693  56.702  0.00  0.00    +0.000 C 
ENDROOT
BRANCH   1   6
ATOM      3  C   UNL     1      37.164  52.204  59.012  0.00  0.00    +0.000 A 
ATOM      4  C   UNL     1      38.106  53.206  59.024  0.00  0.00    +0.000 A 
ATOM      5  C   UNL     1      37.798  54.496  58.678  0.00  0.00    +0.000 A 
ATOM      6  C   UNL     1      36.529  54.865  58.298  0.00  0.00    +0.000 A 
ATOM      7  C   UNL     1      35.559  53.866  58.278  0.00  0.00    +0.000 A 
ATOM      8  C   UNL     1      35.879  52.572  58.629  0.00  0.00    +0.000 A 
BRANCH   3  10
ATOM      9  C   UNL     1      38.788  50.534  59.653  0.00  0.00    +0.000 C 
ATOM     10  O   UNL     1      37.462  50.887  59.362  0.00  0.00    +0.000 OA
ENDBRANCH   3  10
ENDBRANCH   1   6
BRANCH   2  11
ATOM     11  C   UNL     1      35.975  58.054  56.301  0.00  0.00    +0.000 A 
ATOM     12  C   UNL     1      36.908  59.053  56.480  0.00  0.00    +0.000 A 
ATOM     13  C   UNL     1      36.704  60.370  56.139  0.00  0.00    +0.000 A 
ATOM     14  C   UNL     1      35.484  60.710  55.582  0.00  0.00    +0.000 A 
ATOM     15  C   UNL     1      34.525  59.730  55.390  0.00  0.00    +0.000 A 
ATOM     16  C   UNL     1      34.767  58.418  55.745  0.00  0.00    +0.000 A 
BRANCH  13  17
ATOM     17  O   UNL     1      37.695  61.343  56.346  0.00  0.00    +0.000 OA
ATOM     18  C   UNL     1      39.013  60.897  56.609  0.00  0.00    +0.000 C 
ENDBRANCH  13  17
BRANCH  14  19
ATOM     19  O   UNL     1      35.286  62.038  55.242  0.00  0.00    +0.000 OA
ATOM     20  C   UNL     1      35.504  62.463  53.911  0.00  0.00    +0.000 C 
ENDBRANCH  14  19
BRANCH  15  21
ATOM     21  O   UNL     1      33.312  60.091  54.832  0.00  0.00    +0.000 OA
ATOM     22  C   UNL     1      32.174  60.396  55.611  0.00  0.00    +0.000 C 
ENDBRANCH  15  21
ENDBRANCH   2  11
BRANCH   1  23
ATOM     23  N   UNL     1      35.717  57.098  58.953  0.00  0.00    +0.000 N 
ATOM     24  O   UNL     1      36.561  57.671  59.691  0.00  0.00    +0.000 OA
ATOM     25  O   UNL     1      34.375  57.335  59.183  0.00  0.00    +0.000 OA
ENDBRANCH   1  23
TORSDOF 7
ENDMDL
MODEL 6
REMARK VINA RESULT:      -5.6      2.512      8.164
REMARK  Name = 
REMARK  7 active torsions:
REMARK  status: ('A' for Active; 'I' for Inactive)
REMARK    1  A    between atoms: O_2  and  C_3
REMARK    2  A    between atoms: C_6  and  C_7
REMARK    3  A    between atoms: C_7  and  N_21
REMARK    4  A    between atoms: C_8  and  C_9
REMARK    5  A    between atoms: C_11  and  O_12
REMARK    6  A    between atoms: C_14  and  O_15
REMARK    7  A    between atoms: C_17  and  O_18
REMARK                            x       y       z     vdW  Elec       q    Type
REMARK                         _______ _______ _______ _____ _____    ______ ____
ROOT
ATOM      1  C   UNL     1      36.152  55.250  59.547  0.00  0.00    +0.000 C 
ATOM      2  C   UNL     1      36.407  56.486  59.199  0.00  0.00    +0.000 C 
ENDROOT
BRANCH   1   6
ATOM      3  C   UNL     1      38.202  53.240  62.737  0.00  0.00    +0.000 A 
ATOM      4  C   UNL     1      38.776  54.285  62.050  0.00  0.00    +0.000 A 
ATOM      5  C   UNL     1      38.123  54.929  61.030  0.00  0.00    +0.000 A 
ATOM      6  C   UNL     1      36.857  54.569  60.634  0.00  0.00    +0.000 A 
ATOM      7  C   UNL     1      36.256  53.514  61.316  0.00  0.00    +0.000 A 
ATOM      8  C   UNL     1      36.921  52.874  62.341  0.00  0.00    +0.000 A 
BRANCH   3  10
ATOM      9  C   UNL     1      38.236  52.494  65.035  0.00  0.00    +0.000 C 
ATOM     10  O   UNL     1      38.852  52.576  63.777  0.00  0.00    +0.000 OA
ENDBRANCH   3  10
ENDBRANCH   1   6
BRANCH   2  11
ATOM     11  C   UNL     1      35.725  57.189  58.121  0.00  0.00    +0.000 A 
ATOM     12  C   UNL     1      36.256  57.149  56.850  0.00  0.00    +0.000 A 
ATOM     13  C   UNL     1      35.699  57.775  55.759  0.00  0.00    +0.000 A 
ATOM     14  C   UNL     1      34.530  58.491  55.955  0.00  0.00    +0.000 A 
ATOM     15  C   UNL     1      33.971  58.551  57.220  0.00  0.00    +0.000 A 
ATOM     16  C   UNL     1      34.561  57.909  58.291  0.00  0.00    +0.000 A 
BRANCH  13  17
ATOM     17  O   UNL     1      36.288  57.697  54.488  0.00  0.00    +0.000 OA
ATOM     18  C   UNL     1      37.499  58.402  54.277  0.00  0.00    +0.000 C 
ENDBRANCH  13  17
BRANCH  14  19
ATOM     19  O   UNL     1      33.975  59.119  54.852  0.00  0.00    +0.000 OA
ATOM     20  C   UNL     1      34.360  60.442  54.530  0.00  0.00    +0.000 C 
ENDBRANCH  14  19
BRANCH  15  21
ATOM     21  O   UNL     1      32.803  59.272  57.394  0.00  0.00    +0.000 OA
ATOM     22  C   UNL     1      32.787  60.587  57.907  0.00  0.00    +0.000 C 
ENDBRANCH  15  21
ENDBRANCH   2  11
BRANCH   1  23
ATOM     23  N   UNL     1      35.152  54.516  58.855  0.00  0.00    +0.000 N 
ATOM     24  O   UNL     1      35.506  53.775  57.900  0.00  0.00    +0.000 OA
ATOM     25  O   UNL     1      33.810  54.575  59.179  0.00  0.00    +0.000 OA
ENDBRANCH   1  23
TORSDOF 7
ENDMDL
MODEL 7
REMARK VINA RESULT:      -5.6      1.901      8.138
REMARK  Name = 
REMARK  7 active torsions:
REMARK  status: ('A' for Active; 'I' for Inactive)
REMARK    1  A    between atoms: O_2  and  C_3
REMARK    2  A    between atoms: C_6  and  C_7
REMARK    3  A    between atoms: C_7  and  N_21
REMARK    4  A    between atoms: C_8  and  C_9
REMARK    5  A    between atoms: C_11  and  O_12
REMARK    6  A    between atoms: C_14  and  O_15
REMARK    7  A    between atoms: C_17  and  O_18
REMARK                            x       y       z     vdW  Elec       q    Type
REMARK                         _______ _______ _______ _____ _____    ______ ____
ROOT
ATOM      1  C   UNL     1      36.203  56.419  57.760  0.00  0.00    +0.000 C 
ATOM      2  C   UNL     1      36.282  56.806  56.512  0.00  0.00    +0.000 C 
ENDROOT
BRANCH   1   6
ATOM      3  C   UNL     1      36.973  52.383  58.999  0.00  0.00    +0.000 A 
ATOM      4  C   UNL     1      35.731  52.784  58.565  0.00  0.00    +0.000 A 
ATOM      5  C   UNL     1      35.482  54.073  58.168  0.00  0.00    +0.000 A 
ATOM      6  C   UNL     1      36.459  55.040  58.181  0.00  0.00    +0.000 A 
ATOM      7  C   UNL     1      37.724  54.656  58.617  0.00  0.00    +0.000 A 
ATOM      8  C   UNL     1      37.964  53.357  59.013  0.00  0.00    +0.000 A 
BRANCH   3  10
ATOM      9  C   UNL     1      38.569  50.686  59.641  0.00  0.00    +0.000 C 
ATOM     10  O   UNL     1      37.242  51.075  59.405  0.00  0.00    +0.000 OA
ENDBRANCH   3  10
ENDBRANCH   1   6
BRANCH   2  11
ATOM     11  C   UNL     1      36.032  58.169  56.062  0.00  0.00    +0.000 A 
ATOM     12  C   UNL     1      34.773  58.510  55.618  0.00  0.00    +0.000 A 
ATOM     13  C   UNL     1      34.424  59.764  55.171  0.00  0.00    +0.000 A 
ATOM     14  C   UNL     1      35.404  60.741  55.167  0.00  0.00    +0.000 A 
ATOM     15  C   UNL     1      36.679  60.432  55.607  0.00  0.00    +0.000 A 
ATOM     16  C   UNL     1      36.991  59.161  56.048  0.00  0.00    +0.000 A 
BRANCH  13  17
ATOM     17  O   UNL     1      33.123  60.050  54.731  0.00  0.00    +0.000 OA
ATOM     18  C   UNL     1      32.133  60.297  55.714  0.00  0.00    +0.000 C 
ENDBRANCH  13  17
BRANCH  14  19
ATOM     19  O   UNL     1      35.046  62.001  54.715  0.00  0.00    +0.000 OA
ATOM     20  C   UNL     1      34.685  63.005  55.644  0.00  0.00    +0.000 C 
ENDBRANCH  14  19
BRANCH  15  21
ATOM     21  O   UNL     1      37.643  61.423  55.594  0.00  0.00    +0.000 OA
ATOM     22  C   UNL     1      38.220  61.942  56.774  0.00  0.00    +0.000 C 
ENDBRANCH  15  21
ENDBRANCH   2  11
BRANCH   1  23
ATOM     23  N   UNL     1      35.857  57.357  58.769  0.00  0.00    +0.000 N 
ATOM     24  O   UNL     1      36.785  57.953  59.376  0.00  0.00    +0.000 OA
ATOM     25  O   UNL     1      34.551  57.647  59.115  0.00  0.00    +0.000 OA
ENDBRANCH   1  23
TORSDOF 7
ENDMDL
MODEL 8
REMARK VINA RESULT:      -5.6      1.289      2.919
REMARK  Name = 
REMARK  7 active torsions:
REMARK  status: ('A' for Active; 'I' for Inactive)
REMARK    1  A    between atoms: O_2  and  C_3
REMARK    2  A    between atoms: C_6  and  C_7
REMARK    3  A    between atoms: C_7  and  N_21
REMARK    4  A    between atoms: C_8  and  C_9
REMARK    5  A    between atoms: C_11  and  O_12
REMARK    6  A    between atoms: C_14  and  O_15
REMARK    7  A    between atoms: C_17  and  O_18
REMARK                            x       y       z     vdW  Elec       q    Type
REMARK                         _______ _______ _______ _____ _____    ______ ____
ROOT
ATOM      1  C   UNL     1      36.376  55.325  58.672  0.00  0.00    +0.000 C 
ATOM      2  C   UNL     1      36.680  54.227  58.026  0.00  0.00    +0.000 C 
ENDROOT
BRANCH   1   6
ATOM      3  C   UNL     1      34.517  58.707  56.795  0.00  0.00    +0.000 A 
ATOM      4  C   UNL     1      35.575  58.046  56.215  0.00  0.00    +0.000 A 
ATOM      5  C   UNL     1      36.172  56.965  56.812  0.00  0.00    +0.000 A 
ATOM      6  C   UNL     1      35.747  56.478  58.026  0.00  0.00    +0.000 A 
ATOM      7  C   UNL     1      34.676  57.131  58.631  0.00  0.00    +0.000 A 
ATOM      8  C   UNL     1      34.084  58.217  58.021  0.00  0.00    +0.000 A 
BRANCH   3  10
ATOM      9  C   UNL     1      33.668  59.802  54.815  0.00  0.00    +0.000 C 
ATOM     10  O   UNL     1      33.900  59.807  56.199  0.00  0.00    +0.000 OA
ENDBRANCH   3  10
ENDBRANCH   1   6
BRANCH   2  11
ATOM     11  C   UNL     1      37.308  53.065  58.640  0.00  0.00    +0.000 A 
ATOM     12  C   UNL     1      38.682  52.958  58.627  0.00  0.00    +0.000 A 
ATOM     13  C   UNL     1      39.380  51.907  59.175  0.00  0.00    +0.000 A 
ATOM     14  C   UNL     1      38.653  50.894  59.775  0.00  0.00    +0.000 A 
ATOM     15  C   UNL     1      37.272  50.970  59.804  0.00  0.00    +0.000 A 
ATOM     16  C   UNL     1      36.606  52.042  59.243  0.00  0.00    +0.000 A 
BRANCH  13  17
ATOM     17  O   UNL     1      40.783  51.855  59.131  0.00  0.00    +0.000 OA
ATOM     18  C   UNL     1      41.431  52.468  58.031  0.00  0.00    +0.000 C 
ENDBRANCH  13  17
BRANCH  14  19
ATOM     19  O   UNL     1      39.363  49.838  60.324  0.00  0.00    +0.000 OA
ATOM     20  C   UNL     1      39.719  49.867  61.693  0.00  0.00    +0.000 C 
ENDBRANCH  14  19
BRANCH  15  21
ATOM     21  O   UNL     1      36.564  49.946  60.408  0.00  0.00    +0.000 OA
ATOM     22  C   UNL     1      35.217  50.082  60.808  0.00  0.00    +0.000 C 
ENDBRANCH  15  21
ENDBRANCH   2  11
BRANCH   1  23
ATOM     23  N   UNL     1      36.660  55.427  60.059  0.00  0.00    +0.000 N 
ATOM     24  O   UNL     1      37.719  56.011  60.413  0.00  0.00    +0.000 OA
ATOM     25  O   UNL     1      35.831  54.918  61.041  0.00  0.00    +0.000 OA
ENDBRANCH   1  23
TORSDOF 7
ENDMDL
MODEL 9
REMARK VINA RESULT:      -5.5     14.498     16.678
REMARK  Name = 
REMARK  7 active torsions:
REMARK  status: ('A' for Active; 'I' for Inactive)
REMARK    1  A    between atoms: O_2  and  C_3
REMARK    2  A    between atoms: C_6  and  C_7
REMARK    3  A    between atoms: C_7  and  N_21
REMARK    4  A    between atoms: C_8  and  C_9
REMARK    5  A    between atoms: C_11  and  O_12
REMARK    6  A    between atoms: C_14  and  O_15
REMARK    7  A    between atoms: C_17  and  O_18
REMARK                            x       y       z     vdW  Elec       q    Type
REMARK                         _______ _______ _______ _____ _____    ______ ____
ROOT
ATOM      1  C   UNL     1      44.636  46.892  47.104  0.00  0.00    +0.000 C 
ATOM      2  C   UNL     1      45.054  45.846  47.772  0.00  0.00    +0.000 C 
ENDROOT
BRANCH   1   6
ATOM      3  C   UNL     1      46.766  48.488  43.738  0.00  0.00    +0.000 A 
ATOM      4  C   UNL     1      45.392  48.504  43.801  0.00  0.00    +0.000 A 
ATOM      5  C   UNL     1      44.708  47.995  44.875  0.00  0.00    +0.000 A 
ATOM      6  C   UNL     1      45.356  47.439  45.953  0.00  0.00    +0.000 A 
ATOM      7  C   UNL     1      46.748  47.413  45.911  0.00  0.00    +0.000 A 
ATOM      8  C   UNL     1      47.425  47.928  44.826  0.00  0.00    +0.000 A 
BRANCH   3  10
ATOM      9  C   UNL     1      47.689  48.197  41.524  0.00  0.00    +0.000 C 
ATOM     10  O   UNL     1      47.475  49.003  42.652  0.00  0.00    +0.000 OA
ENDBRANCH   3  10
ENDBRANCH   1   6
BRANCH   2  11
ATOM     11  C   UNL     1      44.362  45.280  48.922  0.00  0.00    +0.000 A 
ATOM     12  C   UNL     1      43.375  44.341  48.716  0.00  0.00    +0.000 A 
ATOM     13  C   UNL     1      42.656  43.741  49.725  0.00  0.00    +0.000 A 
ATOM     14  C   UNL     1      42.945  44.109  51.027  0.00  0.00    +0.000 A 
ATOM     15  C   UNL     1      43.931  45.050  51.268  0.00  0.00    +0.000 A 
ATOM     16  C   UNL     1      44.631  45.630  50.229  0.00  0.00    +0.000 A 
BRANCH  13  17
ATOM     17  O   UNL     1      41.662  42.789  49.451  0.00  0.00    +0.000 OA
ATOM     18  C   UNL     1      41.843  41.951  48.324  0.00  0.00    +0.000 C 
ENDBRANCH  13  17
BRANCH  14  19
ATOM     19  O   UNL     1      42.217  43.502  52.037  0.00  0.00    +0.000 OA
ATOM     20  C   UNL     1      42.727  42.345  52.674  0.00  0.00    +0.000 C 
ENDBRANCH  14  19
BRANCH  15  21
ATOM     21  O   UNL     1      44.204  45.403  52.578  0.00  0.00    +0.000 OA
ATOM     22  C   UNL     1      45.071  46.464  52.917  0.00  0.00    +0.000 C 
ENDBRANCH  15  21
ENDBRANCH   2  11
BRANCH   1  23
ATOM     23  N   UNL     1      43.436  47.543  47.494  0.00  0.00    +0.000 N 
ATOM     24  O   UNL     1      42.342  47.094  47.060  0.00  0.00    +0.000 OA
ATOM     25  O   UNL     1      43.409  48.645  48.328  0.00  0.00    +0.000 OA
ENDBRANCH   1  23
TORSDOF 7
ENDMDL
MODEL 10
REMARK VINA RESULT:      -5.5      2.056      3.143
REMARK  Name = 
REMARK  7 active torsions:
REMARK  status: ('A' for Active; 'I' for Inactive)
REMARK    1  A    between atoms: O_2  and  C_3
REMARK    2  A    between atoms: C_6  and  C_7
REMARK    3  A    between atoms: C_7  and  N_21
REMARK    4  A    between atoms: C_8  and  C_9
REMARK    5  A    between atoms: C_11  and  O_12
REMARK    6  A    between atoms: C_14  and  O_15
REMARK    7  A    between atoms: C_17  and  O_18
REMARK                            x       y       z     vdW  Elec       q    Type
REMARK                         _______ _______ _______ _____ _____    ______ ____
ROOT
ATOM      1  C   UNL     1      36.153  55.469  58.541  0.00  0.00    +0.000 C 
ATOM      2  C   UNL     1      37.311  55.518  59.152  0.00  0.00    +0.000 C 
ENDROOT
BRANCH   1   6
ATOM      3  C   UNL     1      34.612  58.733  56.220  0.00  0.00    +0.000 A 
ATOM      4  C   UNL     1      34.113  58.429  57.465  0.00  0.00    +0.000 A 
ATOM      5  C   UNL     1      34.603  57.387  58.210  0.00  0.00    +0.000 A 
ATOM      6  C   UNL     1      35.623  56.584  57.755  0.00  0.00    +0.000 A 
ATOM      7  C   UNL     1      36.144  56.874  56.497  0.00  0.00    +0.000 A 
ATOM      8  C   UNL     1      35.644  57.925  55.757  0.00  0.00    +0.000 A 
BRANCH   3  10
ATOM      9  C   UNL     1      34.624  59.989  54.155  0.00  0.00    +0.000 C 
ATOM     10  O   UNL     1      34.125  59.790  55.452  0.00  0.00    +0.000 OA
ENDBRANCH   3  10
ENDBRANCH   1   6
BRANCH   2  11
ATOM     11  C   UNL     1      37.865  54.426  59.942  0.00  0.00    +0.000 A 
ATOM     12  C   UNL     1      38.832  53.617  59.386  0.00  0.00    +0.000 A 
ATOM     13  C   UNL     1      39.422  52.559  60.038  0.00  0.00    +0.000 A 
ATOM     14  C   UNL     1      39.016  52.294  61.334  0.00  0.00    +0.000 A 
ATOM     15  C   UNL     1      38.047  53.087  61.921  0.00  0.00    +0.000 A 
ATOM     16  C   UNL     1      37.477  54.141  61.234  0.00  0.00    +0.000 A 
BRANCH  13  17
ATOM     17  O   UNL     1      40.404  51.770  59.417  0.00  0.00    +0.000 OA
ATOM     18  C   UNL     1      41.178  52.366  58.391  0.00  0.00    +0.000 C 
ENDBRANCH  13  17
BRANCH  14  19
ATOM     19  O   UNL     1      39.615  51.227  61.983  0.00  0.00    +0.000 OA
ATOM     20  C   UNL     1      40.754  51.446  62.794  0.00  0.00    +0.000 C 
ENDBRANCH  14  19
BRANCH  15  21
ATOM     21  O   UNL     1      37.655  52.805  63.218  0.00  0.00    +0.000 OA
ATOM     22  C   UNL     1      36.537  51.997  63.518  0.00  0.00    +0.000 C 
ENDBRANCH  15  21
ENDBRANCH   2  11
BRANCH   1  23
ATOM     23  N   UNL     1      35.359  54.296  58.630  0.00  0.00    +0.000 N 
ATOM     24  O   UNL     1      35.576  53.361  57.815  0.00  0.00    +0.000 OA
ATOM     25  O   UNL     1      34.359  54.129  59.569  0.00  0.00    +0.000 OA
ENDBRANCH   1  23
TORSDOF 7
ENDMDL
