MODEL 1
REMARK VINA RESULT:      -6.2      0.000      0.000
REMARK  Name = 
REMARK  2 active torsions:
REMARK  status: ('A' for Active; 'I' for Inactive)
REMARK    1  A    between atoms: C_7  and  C_8
REMARK    2  A    between atoms: C_9  and  C_10
REMARK                            x       y       z     vdW  Elec       q    Type
REMARK                         _______ _______ _______ _____ _____    ______ ____
ROOT
ATOM      1  C   UNL     1      36.393  57.446  59.517  0.00  0.00    +0.000 C 
ATOM      2  C   UNL     1      36.338  56.335  60.097  0.00  0.00    +0.000 C 
ENDROOT
BRANCH   1   9
ATOM      3  O   UNL     1      32.642  59.479  57.136  0.00  0.00    +0.000 OA
ATOM      4  C   UNL     1      33.870  58.833  57.156  0.00  0.00    +0.000 A 
ATOM      5  C   UNL     1      34.418  58.567  55.915  0.00  0.00    +0.000 A 
ATOM      6  C   UNL     1      35.656  57.916  55.866  0.00  0.00    +0.000 A 
ATOM      7  O   UNL     1      36.206  57.648  54.621  0.00  0.00    +0.000 OA
ATOM      8  C   UNL     1      36.264  57.575  57.055  0.00  0.00    +0.000 A 
ATOM      9  C   UNL     1      35.755  57.822  58.303  0.00  0.00    +0.000 A 
ATOM     10  C   UNL     1      34.511  58.476  58.304  0.00  0.00    +0.000 A 
ENDBRANCH   1   9
BRANCH   2  11
ATOM     11  C   UNL     1      35.618  55.188  59.717  0.00  0.00    +0.000 A 
ATOM     12  C   UNL     1      34.276  55.095  60.128  0.00  0.00    +0.000 A 
ATOM     13  C   UNL     1      33.422  54.099  59.733  0.00  0.00    +0.000 A 
ATOM     14  C   UNL     1      33.888  53.124  58.886  0.00  0.00    +0.000 A 
ATOM     15  O   UNL     1      32.989  52.131  58.512  0.00  0.00    +0.000 OA
ATOM     16  C   UNL     1      35.190  53.164  58.449  0.00  0.00    +0.000 A 
ATOM     17  C   UNL     1      36.040  54.204  58.873  0.00  0.00    +0.000 A 
ATOM     18  O   UNL     1      37.332  54.198  58.381  0.00  0.00    +0.000 OA
ENDBRANCH   2  11
TORSDOF 2
ENDMDL
MODEL 2
REMARK VINA RESULT:      -6.2      0.056      1.930
REMARK  Name = 
REMARK  2 active torsions:
REMARK  status: ('A' for Active; 'I' for Inactive)
REMARK    1  A    between atoms: C_7  and  C_8
REMARK    2  A    between atoms: C_9  and  C_10
REMARK                            x       y       z     vdW  Elec       q    Type
REMARK                         _______ _______ _______ _____ _____    ______ ____
ROOT
ATOM      1  C   UNL     1      36.371  57.401  59.512  0.00  0.00    +0.000 C 
ATOM      2  C   UNL     1      36.325  56.286  60.087  0.00  0.00    +0.000 C 
ENDROOT
BRANCH   1   9
ATOM      3  O   UNL     1      36.219  57.605  54.633  0.00  0.00    +0.000 OA
ATOM      4  C   UNL     1      35.681  57.871  55.884  0.00  0.00    +0.000 A 
ATOM      5  C   UNL     1      34.474  58.546  55.876  0.00  0.00    +0.000 A 
ATOM      6  C   UNL     1      33.877  58.846  57.105  0.00  0.00    +0.000 A 
ATOM      7  O   UNL     1      32.667  59.523  57.099  0.00  0.00    +0.000 OA
ATOM      8  C   UNL     1      34.522  58.452  58.259  0.00  0.00    +0.000 A 
ATOM      9  C   UNL     1      35.716  57.782  58.309  0.00  0.00    +0.000 A 
ATOM     10  C   UNL     1      36.278  57.503  57.052  0.00  0.00    +0.000 A 
ENDBRANCH   1   9
BRANCH   2  11
ATOM     11  C   UNL     1      35.599  55.141  59.711  0.00  0.00    +0.000 A 
ATOM     12  C   UNL     1      34.255  55.060  60.115  0.00  0.00    +0.000 A 
ATOM     13  C   UNL     1      33.397  54.066  59.722  0.00  0.00    +0.000 A 
ATOM     14  C   UNL     1      33.862  53.082  58.885  0.00  0.00    +0.000 A 
ATOM     15  O   UNL     1      32.960  52.091  58.513  0.00  0.00    +0.000 OA
ATOM     16  C   UNL     1      35.167  53.111  58.456  0.00  0.00    +0.000 A 
ATOM     17  C   UNL     1      36.021  54.149  58.877  0.00  0.00    +0.000 A 
ATOM     18  O   UNL     1      37.316  54.132  58.392  0.00  0.00    +0.000 OA
ENDBRANCH   2  11
TORSDOF 2
ENDMDL
MODEL 3
REMARK VINA RESULT:      -6.1     12.108     14.774
REMARK  Name = 
REMARK  2 active torsions:
REMARK  status: ('A' for Active; 'I' for Inactive)
REMARK    1  A    between atoms: C_7  and  C_8
REMARK    2  A    between atoms: C_9  and  C_10
REMARK                            x       y       z     vdW  Elec       q    Type
REMARK                         _______ _______ _______ _____ _____    ______ ____
ROOT
ATOM      1  C   UNL     1      29.471  45.014  62.476  0.00  0.00    +0.000 C 
ATOM      2  C   UNL     1      29.298  43.824  62.119  0.00  0.00    +0.000 C 
ENDROOT
BRANCH   1   9
ATOM      3  O   UNL     1      27.024  49.045  61.198  0.00  0.00    +0.000 OA
ATOM      4  C   UNL     1      27.286  48.002  62.074  0.00  0.00    +0.000 A 
ATOM      5  C   UNL     1      26.522  47.992  63.227  0.00  0.00    +0.000 A 
ATOM      6  C   UNL     1      26.737  46.966  64.153  0.00  0.00    +0.000 A 
ATOM      7  O   UNL     1      25.971  46.955  65.310  0.00  0.00    +0.000 OA
ATOM      8  C   UNL     1      27.698  46.018  63.869  0.00  0.00    +0.000 A 
ATOM      9  C   UNL     1      28.474  45.993  62.740  0.00  0.00    +0.000 A 
ATOM     10  C   UNL     1      28.223  47.042  61.839  0.00  0.00    +0.000 A 
ENDBRANCH   1   9
BRANCH   2  11
ATOM     11  C   UNL     1      28.084  43.143  61.915  0.00  0.00    +0.000 A 
ATOM     12  C   UNL     1      27.160  43.712  61.021  0.00  0.00    +0.000 A 
ATOM     13  C   UNL     1      25.994  43.103  60.635  0.00  0.00    +0.000 A 
ATOM     14  C   UNL     1      25.695  41.863  61.143  0.00  0.00    +0.000 A 
ATOM     15  O   UNL     1      24.501  41.282  60.727  0.00  0.00    +0.000 OA
ATOM     16  C   UNL     1      26.561  41.257  62.019  0.00  0.00    +0.000 A 
ATOM     17  C   UNL     1      27.752  41.910  62.393  0.00  0.00    +0.000 A 
ATOM     18  O   UNL     1      28.591  41.237  63.262  0.00  0.00    +0.000 OA
ENDBRANCH   2  11
TORSDOF 2
ENDMDL
MODEL 4
REMARK VINA RESULT:      -6.0      1.224      2.536
REMARK  Name = 
REMARK  2 active torsions:
REMARK  status: ('A' for Active; 'I' for Inactive)
REMARK    1  A    between atoms: C_7  and  C_8
REMARK    2  A    between atoms: C_9  and  C_10
REMARK                            x       y       z     vdW  Elec       q    Type
REMARK                         _______ _______ _______ _____ _____    ______ ____
ROOT
ATOM      1  C   UNL     1      36.581  57.510  58.740  0.00  0.00    +0.000 C 
ATOM      2  C   UNL     1      36.475  56.429  59.370  0.00  0.00    +0.000 C 
ENDROOT
BRANCH   1   9
ATOM      3  O   UNL     1      35.931  58.104  53.935  0.00  0.00    +0.000 OA
ATOM      4  C   UNL     1      35.510  58.238  55.250  0.00  0.00    +0.000 A 
ATOM      5  C   UNL     1      34.280  58.848  55.417  0.00  0.00    +0.000 A 
ATOM      6  C   UNL     1      33.798  59.015  56.719  0.00  0.00    +0.000 A 
ATOM      7  O   UNL     1      32.564  59.627  56.888  0.00  0.00    +0.000 OA
ATOM      8  C   UNL     1      34.571  58.562  57.767  0.00  0.00    +0.000 A 
ATOM      9  C   UNL     1      35.792  57.954  57.643  0.00  0.00    +0.000 A 
ATOM     10  C   UNL     1      36.237  57.808  56.318  0.00  0.00    +0.000 A 
ENDBRANCH   1   9
BRANCH   2  11
ATOM     11  C   UNL     1      35.541  55.395  59.175  0.00  0.00    +0.000 A 
ATOM     12  C   UNL     1      35.953  54.277  58.429  0.00  0.00    +0.000 A 
ATOM     13  C   UNL     1      35.195  53.147  58.262  0.00  0.00    +0.000 A 
ATOM     14  C   UNL     1      33.956  53.088  58.850  0.00  0.00    +0.000 A 
ATOM     15  O   UNL     1      33.219  51.925  58.653  0.00  0.00    +0.000 OA
ATOM     16  C   UNL     1      33.501  54.150  59.593  0.00  0.00    +0.000 A 
ATOM     17  C   UNL     1      34.307  55.295  59.747  0.00  0.00    +0.000 A 
ATOM     18  O   UNL     1      33.801  56.320  60.524  0.00  0.00    +0.000 OA
ENDBRANCH   2  11
TORSDOF 2
ENDMDL
MODEL 5
REMARK VINA RESULT:      -5.9      4.083      5.563
REMARK  Name = 
REMARK  2 active torsions:
REMARK  status: ('A' for Active; 'I' for Inactive)
REMARK    1  A    between atoms: C_7  and  C_8
REMARK    2  A    between atoms: C_9  and  C_10
REMARK                            x       y       z     vdW  Elec       q    Type
REMARK                         _______ _______ _______ _____ _____    ______ ____
ROOT
ATOM      1  C   UNL     1      36.537  54.612  59.081  0.00  0.00    +0.000 C 
ATOM      2  C   UNL     1      35.528  53.965  59.452  0.00  0.00    +0.000 C 
ENDROOT
BRANCH   1   9
ATOM      3  O   UNL     1      40.606  54.877  61.772  0.00  0.00    +0.000 OA
ATOM      4  C   UNL     1      39.907  54.443  60.655  0.00  0.00    +0.000 A 
ATOM      5  C   UNL     1      40.637  53.682  59.760  0.00  0.00    +0.000 A 
ATOM      6  C   UNL     1      39.990  53.214  58.611  0.00  0.00    +0.000 A 
ATOM      7  O   UNL     1      40.722  52.451  57.712  0.00  0.00    +0.000 OA
ATOM      8  C   UNL     1      38.661  53.532  58.432  0.00  0.00    +0.000 A 
ATOM      9  C   UNL     1      37.904  54.281  59.294  0.00  0.00    +0.000 A 
ATOM     10  C   UNL     1      38.594  54.730  60.433  0.00  0.00    +0.000 A 
ENDBRANCH   1   9
BRANCH   2  11
ATOM     11  C   UNL     1      35.483  52.743  60.147  0.00  0.00    +0.000 A 
ATOM     12  C   UNL     1      35.418  52.794  61.551  0.00  0.00    +0.000 A 
ATOM     13  C   UNL     1      35.248  51.693  62.350  0.00  0.00    +0.000 A 
ATOM     14  C   UNL     1      35.134  50.459  61.760  0.00  0.00    +0.000 A 
ATOM     15  O   UNL     1      34.966  49.368  62.606  0.00  0.00    +0.000 OA
ATOM     16  C   UNL     1      35.188  50.348  60.392  0.00  0.00    +0.000 A 
ATOM     17  C   UNL     1      35.361  51.501  59.601  0.00  0.00    +0.000 A 
ATOM     18  O   UNL     1      35.385  51.323  58.230  0.00  0.00    +0.000 OA
ENDBRANCH   2  11
TORSDOF 2
ENDMDL
MODEL 6
REMARK VINA RESULT:      -5.9      4.079      5.786
REMARK  Name = 
REMARK  2 active torsions:
REMARK  status: ('A' for Active; 'I' for Inactive)
REMARK    1  A    between atoms: C_7  and  C_8
REMARK    2  A    between atoms: C_9  and  C_10
REMARK                            x       y       z     vdW  Elec       q    Type
REMARK                         _______ _______ _______ _____ _____    ______ ____
ROOT
ATOM      1  C   UNL     1      36.566  54.626  59.033  0.00  0.00    +0.000 C 
ATOM      2  C   UNL     1      35.555  53.974  59.390  0.00  0.00    +0.000 C 
ENDROOT
BRANCH   1   9
ATOM      3  O   UNL     1      40.723  52.401  57.756  0.00  0.00    +0.000 OA
ATOM      4  C   UNL     1      39.975  53.188  58.619  0.00  0.00    +0.000 A 
ATOM      5  C   UNL     1      40.644  53.632  59.745  0.00  0.00    +0.000 A 
ATOM      6  C   UNL     1      39.945  54.430  60.656  0.00  0.00    +0.000 A 
ATOM      7  O   UNL     1      40.616  54.876  61.786  0.00  0.00    +0.000 OA
ATOM      8  C   UNL     1      38.628  54.734  60.386  0.00  0.00    +0.000 A 
ATOM      9  C   UNL     1      37.930  54.315  59.283  0.00  0.00    +0.000 A 
ATOM     10  C   UNL     1      38.672  53.516  58.396  0.00  0.00    +0.000 A 
ENDBRANCH   1   9
BRANCH   2  11
ATOM     11  C   UNL     1      35.507  52.761  60.100  0.00  0.00    +0.000 A 
ATOM     12  C   UNL     1      35.423  52.830  61.502  0.00  0.00    +0.000 A 
ATOM     13  C   UNL     1      35.249  51.739  62.313  0.00  0.00    +0.000 A 
ATOM     14  C   UNL     1      35.148  50.496  61.738  0.00  0.00    +0.000 A 
ATOM     15  O   UNL     1      34.975  49.415  62.596  0.00  0.00    +0.000 OA
ATOM     16  C   UNL     1      35.221  50.367  60.372  0.00  0.00    +0.000 A 
ATOM     17  C   UNL     1      35.398  51.510  59.568  0.00  0.00    +0.000 A 
ATOM     18  O   UNL     1      35.442  51.315  58.200  0.00  0.00    +0.000 OA
ENDBRANCH   2  11
TORSDOF 2
ENDMDL
MODEL 7
REMARK VINA RESULT:      -5.7     11.710     14.103
REMARK  Name = 
REMARK  2 active torsions:
REMARK  status: ('A' for Active; 'I' for Inactive)
REMARK    1  A    between atoms: C_7  and  C_8
REMARK    2  A    between atoms: C_9  and  C_10
REMARK                            x       y       z     vdW  Elec       q    Type
REMARK                         _______ _______ _______ _____ _____    ______ ____
ROOT
ATOM      1  C   UNL     1      29.331  42.305  61.815  0.00  0.00    +0.000 C 
ATOM      2  C   UNL     1      28.969  43.207  62.609  0.00  0.00    +0.000 C 
ENDROOT
BRANCH   1   9
ATOM      3  O   UNL     1      28.660  41.876  56.995  0.00  0.00    +0.000 OA
ATOM      4  C   UNL     1      29.430  42.227  58.094  0.00  0.00    +0.000 A 
ATOM      5  C   UNL     1      30.687  42.723  57.800  0.00  0.00    +0.000 A 
ATOM      6  C   UNL     1      31.515  43.095  58.865  0.00  0.00    +0.000 A 
ATOM      7  O   UNL     1      32.777  43.593  58.572  0.00  0.00    +0.000 OA
ATOM      8  C   UNL     1      31.036  42.949  60.150  0.00  0.00    +0.000 A 
ATOM      9  C   UNL     1      29.798  42.463  60.481  0.00  0.00    +0.000 A 
ATOM     10  C   UNL     1      29.002  42.102  59.381  0.00  0.00    +0.000 A 
ENDBRANCH   1   9
BRANCH   2  11
ATOM     11  C   UNL     1      28.956  44.598  62.401  0.00  0.00    +0.000 A 
ATOM     12  C   UNL     1      27.715  45.207  62.144  0.00  0.00    +0.000 A 
ATOM     13  C   UNL     1      27.534  46.562  62.041  0.00  0.00    +0.000 A 
ATOM     14  C   UNL     1      28.619  47.388  62.196  0.00  0.00    +0.000 A 
ATOM     15  O   UNL     1      28.392  48.756  62.082  0.00  0.00    +0.000 OA
ATOM     16  C   UNL     1      29.857  46.850  62.451  0.00  0.00    +0.000 A 
ATOM     17  C   UNL     1      30.007  45.453  62.553  0.00  0.00    +0.000 A 
ATOM     18  O   UNL     1      31.275  44.977  62.832  0.00  0.00    +0.000 OA
ENDBRANCH   2  11
TORSDOF 2
ENDMDL
MODEL 8
REMARK VINA RESULT:      -5.6      3.491      7.143
REMARK  Name = 
REMARK  2 active torsions:
REMARK  status: ('A' for Active; 'I' for Inactive)
REMARK    1  A    between atoms: C_7  and  C_8
REMARK    2  A    between atoms: C_9  and  C_10
REMARK                            x       y       z     vdW  Elec       q    Type
REMARK                         _______ _______ _______ _____ _____    ______ ____
ROOT
ATOM      1  C   UNL     1      35.080  51.551  58.407  0.00  0.00    +0.000 C 
ATOM      2  C   UNL     1      35.024  52.786  58.188  0.00  0.00    +0.000 C 
ENDROOT
BRANCH   1   9
ATOM      3  O   UNL     1      34.484  49.142  62.615  0.00  0.00    +0.000 OA
ATOM      4  C   UNL     1      35.286  49.710  61.637  0.00  0.00    +0.000 A 
ATOM      5  C   UNL     1      36.648  49.611  61.858  0.00  0.00    +0.000 A 
ATOM      6  C   UNL     1      37.513  50.165  60.908  0.00  0.00    +0.000 A 
ATOM      7  O   UNL     1      38.879  50.067  61.129  0.00  0.00    +0.000 OA
ATOM      8  C   UNL     1      36.965  50.780  59.802  0.00  0.00    +0.000 A 
ATOM      9  C   UNL     1      35.623  50.898  59.547  0.00  0.00    +0.000 A 
ATOM     10  C   UNL     1      34.793  50.328  60.527  0.00  0.00    +0.000 A 
ENDBRANCH   1   9
BRANCH   2  11
ATOM     11  C   UNL     1      35.456  53.838  59.016  0.00  0.00    +0.000 A 
ATOM     12  C   UNL     1      36.728  54.382  58.767  0.00  0.00    +0.000 A 
ATOM     13  C   UNL     1      37.229  55.484  59.411  0.00  0.00    +0.000 A 
ATOM     14  C   UNL     1      36.454  56.105  60.359  0.00  0.00    +0.000 A 
ATOM     15  O   UNL     1      37.001  57.218  60.990  0.00  0.00    +0.000 OA
ATOM     16  C   UNL     1      35.201  55.620  60.643  0.00  0.00    +0.000 A 
ATOM     17  C   UNL     1      34.717  54.486  59.960  0.00  0.00    +0.000 A 
ATOM     18  O   UNL     1      33.440  54.061  60.277  0.00  0.00    +0.000 OA
ENDBRANCH   2  11
TORSDOF 2
ENDMDL
MODEL 9
REMARK VINA RESULT:      -5.6      3.483      7.336
REMARK  Name = 
REMARK  2 active torsions:
REMARK  status: ('A' for Active; 'I' for Inactive)
REMARK    1  A    between atoms: C_7  and  C_8
REMARK    2  A    between atoms: C_9  and  C_10
REMARK                            x       y       z     vdW  Elec       q    Type
REMARK                         _______ _______ _______ _____ _____    ______ ____
ROOT
ATOM      1  C   UNL     1      35.222  51.577  58.395  0.00  0.00    +0.000 C 
ATOM      2  C   UNL     1      35.132  52.810  58.176  0.00  0.00    +0.000 C 
ENDROOT
BRANCH   1   9
ATOM      3  O   UNL     1      38.971  49.971  61.086  0.00  0.00    +0.000 OA
ATOM      4  C   UNL     1      37.612  50.150  60.867  0.00  0.00    +0.000 A 
ATOM      5  C   UNL     1      36.784  49.651  61.856  0.00  0.00    +0.000 A 
ATOM      6  C   UNL     1      35.402  49.798  61.697  0.00  0.00    +0.000 A 
ATOM      7  O   UNL     1      34.571  49.297  62.688  0.00  0.00    +0.000 OA
ATOM      8  C   UNL     1      34.938  50.433  60.564  0.00  0.00    +0.000 A 
ATOM      9  C   UNL     1      35.724  50.941  59.563  0.00  0.00    +0.000 A 
ATOM     10  C   UNL     1      37.104  50.770  59.766  0.00  0.00    +0.000 A 
ENDBRANCH   1   9
BRANCH   2  11
ATOM     11  C   UNL     1      35.475  53.874  59.028  0.00  0.00    +0.000 A 
ATOM     12  C   UNL     1      36.737  54.469  58.854  0.00  0.00    +0.000 A 
ATOM     13  C   UNL     1      37.157  55.586  59.527  0.00  0.00    +0.000 A 
ATOM     14  C   UNL     1      36.306  56.173  60.431  0.00  0.00    +0.000 A 
ATOM     15  O   UNL     1      36.772  57.303  61.094  0.00  0.00    +0.000 OA
ATOM     16  C   UNL     1      35.059  55.638  60.642  0.00  0.00    +0.000 A 
ATOM     17  C   UNL     1      34.659  54.489  59.931  0.00  0.00    +0.000 A 
ATOM     18  O   UNL     1      33.384  54.013  60.173  0.00  0.00    +0.000 OA
ENDBRANCH   2  11
TORSDOF 2
ENDMDL
MODEL 10
REMARK VINA RESULT:      -5.5      3.796      6.179
REMARK  Name = 
REMARK  2 active torsions:
REMARK  status: ('A' for Active; 'I' for Inactive)
REMARK    1  A    between atoms: C_7  and  C_8
REMARK    2  A    between atoms: C_9  and  C_10
REMARK                            x       y       z     vdW  Elec       q    Type
REMARK                         _______ _______ _______ _____ _____    ______ ____
ROOT
ATOM      1  C   UNL     1      35.205  51.360  58.693  0.00  0.00    +0.000 C 
ATOM      2  C   UNL     1      34.757  50.689  59.655  0.00  0.00    +0.000 C 
ENDROOT
BRANCH   1   9
ATOM      3  O   UNL     1      39.983  52.306  59.070  0.00  0.00    +0.000 OA
ATOM      4  C   UNL     1      38.667  52.713  58.911  0.00  0.00    +0.000 A 
ATOM      5  C   UNL     1      38.481  54.078  58.788  0.00  0.00    +0.000 A 
ATOM      6  C   UNL     1      37.176  54.555  58.625  0.00  0.00    +0.000 A 
ATOM      7  O   UNL     1      36.989  55.924  58.502  0.00  0.00    +0.000 OA
ATOM      8  C   UNL     1      36.144  53.641  58.594  0.00  0.00    +0.000 A 
ATOM      9  C   UNL     1      36.286  52.283  58.711  0.00  0.00    +0.000 A 
ATOM     10  C   UNL     1      37.613  51.850  58.874  0.00  0.00    +0.000 A 
ENDBRANCH   1   9
BRANCH   2  11
ATOM     11  C   UNL     1      35.219  50.653  60.983  0.00  0.00    +0.000 A 
ATOM     12  C   UNL     1      35.916  49.506  61.400  0.00  0.00    +0.000 A 
ATOM     13  C   UNL     1      36.525  49.382  62.621  0.00  0.00    +0.000 A 
ATOM     14  C   UNL     1      36.459  50.432  63.503  0.00  0.00    +0.000 A 
ATOM     15  O   UNL     1      37.088  50.263  64.733  0.00  0.00    +0.000 OA
ATOM     16  C   UNL     1      35.793  51.580  63.150  0.00  0.00    +0.000 A 
ATOM     17  C   UNL     1      35.180  51.674  61.885  0.00  0.00    +0.000 A 
ATOM     18  O   UNL     1      34.545  52.865  61.583  0.00  0.00    +0.000 OA
ENDBRANCH   2  11
TORSDOF 2
ENDMDL
