REMARK  Name = 
REMARK  6 active torsions:
REMARK  status: ('A' for Active; 'I' for Inactive)
REMARK    1  A    between atoms: O_2  and  C_3
REMARK    2  A    between atoms: C_6  and  C_7
REMARK    3  A    between atoms: C_8  and  C_9
REMARK    4  A    between atoms: C_11  and  O_12
REMARK    5  A    between atoms: C_14  and  O_15
REMARK    6  A    between atoms: C_17  and  O_18
REMARK                            x       y       z     vdW  Elec       q    Type
REMARK                         _______ _______ _______ _____ _____    ______ ____
ROOT
ATOM      1  C   UNL     1       0.976   0.556  -0.094  0.00  0.00    +0.000 A 
ATOM      2  C   UNL     1       1.838  -0.442   0.303  0.00  0.00    +0.000 A 
ATOM      3  C   UNL     1       3.207  -0.275   0.339  0.00  0.00    +0.000 A 
ATOM      4  C   UNL     1       3.749   0.957  -0.044  0.00  0.00    +0.000 A 
ATOM      5  C   UNL     1       2.918   1.965  -0.442  0.00  0.00    +0.000 A 
ATOM      6  C   UNL     1       1.545   1.755  -0.463  0.00  0.00    +0.000 A 
ENDROOT
BRANCH   1   8
ATOM      7  C   UNL     1      -1.034  -0.789   0.228  0.00  0.00    +0.000 C 
ATOM      8  C   UNL     1      -0.462   0.316  -0.109  0.00  0.00    +0.000 C 
BRANCH   7  12
ATOM      9  C   UNL     1      -5.246  -1.579   0.213  0.00  0.00    +0.000 A 
ATOM     10  C   UNL     1      -4.766  -0.345  -0.174  0.00  0.00    +0.000 A 
ATOM     11  C   UNL     1      -3.403  -0.094  -0.167  0.00  0.00    +0.000 A 
ATOM     12  C   UNL     1      -2.472  -1.037   0.216  0.00  0.00    +0.000 A 
ATOM     13  C   UNL     1      -2.960  -2.268   0.602  0.00  0.00    +0.000 A 
ATOM     14  C   UNL     1      -4.318  -2.524   0.597  0.00  0.00    +0.000 A 
BRANCH   9  16
ATOM     15  C   UNL     1      -7.507  -0.824  -0.195  0.00  0.00    +0.000 C 
ATOM     16  O   UNL     1      -6.610  -1.841   0.211  0.00  0.00    +0.000 OA
ENDBRANCH   9  16
ENDBRANCH   7  12
ENDBRANCH   1   8
BRANCH   3  17
ATOM     17  O   UNL     1       4.066  -1.279   0.738  0.00  0.00    +0.000 OA
ATOM     18  C   UNL     1       3.494  -2.516   1.120  0.00  0.00    +0.000 C 
ENDBRANCH   3  17
BRANCH   4  19
ATOM     19  O   UNL     1       5.114   1.154  -0.019  0.00  0.00    +0.000 OA
ATOM     20  C   UNL     1       5.722   1.647   1.152  0.00  0.00    +0.000 C 
ENDBRANCH   4  19
BRANCH   5  21
ATOM     21  O   UNL     1       3.455   3.184  -0.821  0.00  0.00    +0.000 OA
ATOM     22  C   UNL     1       2.695   4.279  -1.244  0.00  0.00    +0.000 C 
ENDBRANCH   5  21
TORSDOF 6
