MODEL 1
REMARK VINA RESULT:      -6.1      0.000      0.000
REMARK  Name = 
REMARK  5 active torsions:
REMARK  status: ('A' for Active; 'I' for Inactive)
REMARK    1  A    between atoms: O_2  and  C_3
REMARK    2  A    between atoms: C_6  and  C_7
REMARK    3  A    between atoms: C_7  and  C_8
REMARK    4  A    between atoms: C_10  and  C_11
REMARK    5  A    between atoms: C_13  and  O_14
REMARK                            x       y       z     vdW  Elec       q    Type
REMARK                         _______ _______ _______ _____ _____    ______ ____
ROOT
ATOM      1  C   UNL     1      35.460  54.324  59.622  0.00  0.00    +0.000 C 
ATOM      2  C   UNL     1      36.299  53.413  59.923  0.00  0.00    +0.000 C 
ENDROOT
BRANCH   2   3
ATOM      3  C   UNL     1      37.691  53.414  59.740  0.00  0.00    +0.000 A 
ATOM      4  C   UNL     1      38.515  54.056  60.679  0.00  0.00    +0.000 A 
ATOM      5  C   UNL     1      39.873  54.152  60.546  0.00  0.00    +0.000 A 
ATOM      6  C   UNL     1      40.494  53.597  59.441  0.00  0.00    +0.000 A 
ATOM      7  C   UNL     1      39.721  52.957  58.493  0.00  0.00    +0.000 A 
ATOM      8  C   UNL     1      38.355  52.883  58.665  0.00  0.00    +0.000 A 
ATOM      9  O   UNL     1      40.612  52.509  57.515  0.00  0.00    +0.000 OA
ATOM     10  C   UNL     1      41.925  52.541  58.019  0.00  0.00    +0.000 C 
ATOM     11  O   UNL     1      41.829  53.534  59.036  0.00  0.00    +0.000 OA
BRANCH   5  12
ATOM     12  O   UNL     1      40.680  54.796  61.490  0.00  0.00    +0.000 OA
ATOM     13  C   UNL     1      40.065  55.203  62.716  0.00  0.00    +0.000 C 
ENDBRANCH   5  12
ENDBRANCH   2   3
BRANCH   1  17
ATOM     14  C   UNL     1      36.622  58.142  58.143  0.00  0.00    +0.000 A 
ATOM     15  C   UNL     1      36.389  57.899  59.477  0.00  0.00    +0.000 A 
ATOM     16  C   UNL     1      36.029  56.653  59.882  0.00  0.00    +0.000 A 
ATOM     17  C   UNL     1      35.873  55.555  59.003  0.00  0.00    +0.000 A 
ATOM     18  C   UNL     1      36.107  55.821  57.703  0.00  0.00    +0.000 A 
ATOM     19  C   UNL     1      36.472  57.074  57.268  0.00  0.00    +0.000 A 
BRANCH  14  21
ATOM     20  C   UNL     1      37.179  59.593  56.316  0.00  0.00    +0.000 C 
ATOM     21  O   UNL     1      36.990  59.405  57.704  0.00  0.00    +0.000 OA
ENDBRANCH  14  21
ENDBRANCH   1  17
BRANCH   1  22
ATOM     22  C   UNL     1      34.033  54.101  59.916  0.00  0.00    +0.000 C 
ATOM     23  N   UNL     1      32.910  53.936  60.133  0.00  0.00    +0.000 NA
ENDBRANCH   1  22
TORSDOF 5
ENDMDL
MODEL 2
REMARK VINA RESULT:      -6.1      1.568      6.017
REMARK  Name = 
REMARK  5 active torsions:
REMARK  status: ('A' for Active; 'I' for Inactive)
REMARK    1  A    between atoms: O_2  and  C_3
REMARK    2  A    between atoms: C_6  and  C_7
REMARK    3  A    between atoms: C_7  and  C_8
REMARK    4  A    between atoms: C_10  and  C_11
REMARK    5  A    between atoms: C_13  and  O_14
REMARK                            x       y       z     vdW  Elec       q    Type
REMARK                         _______ _______ _______ _____ _____    ______ ____
ROOT
ATOM      1  C   UNL     1      35.042  55.473  59.199  0.00  0.00    +0.000 C 
ATOM      2  C   UNL     1      34.717  56.523  58.556  0.00  0.00    +0.000 C 
ENDROOT
BRANCH   2   3
ATOM      3  C   UNL     1      35.556  57.441  57.903  0.00  0.00    +0.000 A 
ATOM      4  C   UNL     1      35.848  57.269  56.541  0.00  0.00    +0.000 A 
ATOM      5  C   UNL     1      36.699  58.084  55.845  0.00  0.00    +0.000 A 
ATOM      6  C   UNL     1      37.317  59.139  56.491  0.00  0.00    +0.000 A 
ATOM      7  C   UNL     1      37.059  59.344  57.831  0.00  0.00    +0.000 A 
ATOM      8  C   UNL     1      36.194  58.500  58.495  0.00  0.00    +0.000 A 
ATOM      9  O   UNL     1      37.813  60.461  58.198  0.00  0.00    +0.000 OA
ATOM     10  C   UNL     1      38.233  61.149  57.045  0.00  0.00    +0.000 C 
ATOM     11  O   UNL     1      38.214  60.119  56.061  0.00  0.00    +0.000 OA
BRANCH   5  12
ATOM     12  O   UNL     1      36.980  57.898  54.487  0.00  0.00    +0.000 OA
ATOM     13  C   UNL     1      36.179  58.613  53.543  0.00  0.00    +0.000 C 
ENDBRANCH   5  12
ENDBRANCH   2   3
BRANCH   1  17
ATOM     14  C   UNL     1      39.124  54.539  59.964  0.00  0.00    +0.000 A 
ATOM     15  C   UNL     1      38.356  55.288  60.826  0.00  0.00    +0.000 A 
ATOM     16  C   UNL     1      37.056  55.541  60.524  0.00  0.00    +0.000 A 
ATOM     17  C   UNL     1      36.417  55.075  59.351  0.00  0.00    +0.000 A 
ATOM     18  C   UNL     1      37.190  54.344  58.525  0.00  0.00    +0.000 A 
ATOM     19  C   UNL     1      38.510  54.074  58.808  0.00  0.00    +0.000 A 
BRANCH  14  21
ATOM     20  C   UNL     1      41.123  53.325  59.436  0.00  0.00    +0.000 C 
ATOM     21  O   UNL     1      40.454  54.266  60.249  0.00  0.00    +0.000 OA
ENDBRANCH  14  21
ENDBRANCH   1  17
BRANCH   1  22
ATOM     22  C   UNL     1      33.977  54.651  59.802  0.00  0.00    +0.000 C 
ATOM     23  N   UNL     1      33.142  54.018  60.287  0.00  0.00    +0.000 NA
ENDBRANCH   1  22
TORSDOF 5
ENDMDL
MODEL 3
REMARK VINA RESULT:      -6.1      1.438      5.588
REMARK  Name = 
REMARK  5 active torsions:
REMARK  status: ('A' for Active; 'I' for Inactive)
REMARK    1  A    between atoms: O_2  and  C_3
REMARK    2  A    between atoms: C_6  and  C_7
REMARK    3  A    between atoms: C_7  and  C_8
REMARK    4  A    between atoms: C_10  and  C_11
REMARK    5  A    between atoms: C_13  and  O_14
REMARK                            x       y       z     vdW  Elec       q    Type
REMARK                         _______ _______ _______ _____ _____    ______ ____
ROOT
ATOM      1  C   UNL     1      36.122  54.282  60.198  0.00  0.00    +0.000 C 
ATOM      2  C   UNL     1      35.428  55.147  59.569  0.00  0.00    +0.000 C 
ENDROOT
BRANCH   2   3
ATOM      3  C   UNL     1      35.868  56.122  58.659  0.00  0.00    +0.000 A 
ATOM      4  C   UNL     1      36.166  57.415  59.117  0.00  0.00    +0.000 A 
ATOM      5  C   UNL     1      36.546  58.437  58.291  0.00  0.00    +0.000 A 
ATOM      6  C   UNL     1      36.651  58.214  56.929  0.00  0.00    +0.000 A 
ATOM      7  C   UNL     1      36.366  56.956  56.436  0.00  0.00    +0.000 A 
ATOM      8  C   UNL     1      35.987  55.954  57.304  0.00  0.00    +0.000 A 
ATOM      9  O   UNL     1      36.557  57.037  55.055  0.00  0.00    +0.000 OA
ATOM     10  C   UNL     1      37.291  58.196  54.744  0.00  0.00    +0.000 C 
ATOM     11  O   UNL     1      37.006  59.036  55.858  0.00  0.00    +0.000 OA
BRANCH   5  12
ATOM     12  O   UNL     1      36.838  59.721  58.763  0.00  0.00    +0.000 OA
ATOM     13  C   UNL     1      35.736  60.569  59.099  0.00  0.00    +0.000 C 
ENDBRANCH   5  12
ENDBRANCH   2   3
BRANCH   1  17
ATOM     14  C   UNL     1      40.282  53.769  59.459  0.00  0.00    +0.000 A 
ATOM     15  C   UNL     1      39.309  53.193  58.674  0.00  0.00    +0.000 A 
ATOM     16  C   UNL     1      37.998  53.406  58.962  0.00  0.00    +0.000 A 
ATOM     17  C   UNL     1      37.550  54.201  60.043  0.00  0.00    +0.000 A 
ATOM     18  C   UNL     1      38.522  54.753  60.794  0.00  0.00    +0.000 A 
ATOM     19  C   UNL     1      39.857  54.553  60.524  0.00  0.00    +0.000 A 
BRANCH  14  21
ATOM     20  C   UNL     1      41.973  52.500  58.329  0.00  0.00    +0.000 C 
ATOM     21  O   UNL     1      41.627  53.568  59.186  0.00  0.00    +0.000 OA
ENDBRANCH  14  21
ENDBRANCH   1  17
BRANCH   1  22
ATOM     22  C   UNL     1      35.435  53.346  61.107  0.00  0.00    +0.000 C 
ATOM     23  N   UNL     1      34.912  52.603  61.820  0.00  0.00    +0.000 NA
ENDBRANCH   1  22
TORSDOF 5
ENDMDL
MODEL 4
REMARK VINA RESULT:      -6.0      2.361      3.850
REMARK  Name = 
REMARK  5 active torsions:
REMARK  status: ('A' for Active; 'I' for Inactive)
REMARK    1  A    between atoms: O_2  and  C_3
REMARK    2  A    between atoms: C_6  and  C_7
REMARK    3  A    between atoms: C_7  and  C_8
REMARK    4  A    between atoms: C_10  and  C_11
REMARK    5  A    between atoms: C_13  and  O_14
REMARK                            x       y       z     vdW  Elec       q    Type
REMARK                         _______ _______ _______ _____ _____    ______ ____
ROOT
ATOM      1  C   UNL     1      34.715  57.846  59.897  0.00  0.00    +0.000 C 
ATOM      2  C   UNL     1      35.016  56.721  60.415  0.00  0.00    +0.000 C 
ENDROOT
BRANCH   2   3
ATOM      3  C   UNL     1      35.873  55.731  59.909  0.00  0.00    +0.000 A 
ATOM      4  C   UNL     1      35.347  54.692  59.124  0.00  0.00    +0.000 A 
ATOM      5  C   UNL     1      36.103  53.658  58.640  0.00  0.00    +0.000 A 
ATOM      6  C   UNL     1      37.457  53.610  58.922  0.00  0.00    +0.000 A 
ATOM      7  C   UNL     1      38.014  54.611  59.690  0.00  0.00    +0.000 A 
ATOM      8  C   UNL     1      37.217  55.634  60.158  0.00  0.00    +0.000 A 
ATOM      9  O   UNL     1      39.370  54.295  59.802  0.00  0.00    +0.000 OA
ATOM     10  C   UNL     1      39.715  53.337  58.831  0.00  0.00    +0.000 C 
ATOM     11  O   UNL     1      38.464  52.706  58.578  0.00  0.00    +0.000 OA
BRANCH   5  12
ATOM     12  O   UNL     1      35.563  52.630  57.860  0.00  0.00    +0.000 OA
ATOM     13  C   UNL     1      35.161  51.433  58.532  0.00  0.00    +0.000 C 
ENDBRANCH   5  12
ENDBRANCH   2   3
BRANCH   1  17
ATOM     14  C   UNL     1      35.982  58.937  55.983  0.00  0.00    +0.000 A 
ATOM     15  C   UNL     1      34.719  58.461  56.252  0.00  0.00    +0.000 A 
ATOM     16  C   UNL     1      34.378  58.140  57.528  0.00  0.00    +0.000 A 
ATOM     17  C   UNL     1      35.255  58.264  58.631  0.00  0.00    +0.000 A 
ATOM     18  C   UNL     1      36.484  58.731  58.339  0.00  0.00    +0.000 A 
ATOM     19  C   UNL     1      36.855  59.063  57.056  0.00  0.00    +0.000 A 
BRANCH  14  21
ATOM     20  C   UNL     1      37.461  58.597  54.127  0.00  0.00    +0.000 C 
ATOM     21  O   UNL     1      36.355  59.272  54.690  0.00  0.00    +0.000 OA
ENDBRANCH  14  21
ENDBRANCH   1  17
BRANCH   1  22
ATOM     22  C   UNL     1      33.787  58.735  60.620  0.00  0.00    +0.000 C 
ATOM     23  N   UNL     1      33.072  59.444  61.185  0.00  0.00    +0.000 NA
ENDBRANCH   1  22
TORSDOF 5
ENDMDL
MODEL 5
REMARK VINA RESULT:      -5.9      1.429      5.920
REMARK  Name = 
REMARK  5 active torsions:
REMARK  status: ('A' for Active; 'I' for Inactive)
REMARK    1  A    between atoms: O_2  and  C_3
REMARK    2  A    between atoms: C_6  and  C_7
REMARK    3  A    between atoms: C_7  and  C_8
REMARK    4  A    between atoms: C_10  and  C_11
REMARK    5  A    between atoms: C_13  and  O_14
REMARK                            x       y       z     vdW  Elec       q    Type
REMARK                         _______ _______ _______ _____ _____    ______ ____
ROOT
ATOM      1  C   UNL     1      36.153  54.240  60.756  0.00  0.00    +0.000 C 
ATOM      2  C   UNL     1      35.439  55.237  60.410  0.00  0.00    +0.000 C 
ENDROOT
BRANCH   2   3
ATOM      3  C   UNL     1      35.834  56.394  59.719  0.00  0.00    +0.000 A 
ATOM      4  C   UNL     1      35.565  56.509  58.346  0.00  0.00    +0.000 A 
ATOM      5  C   UNL     1      35.965  57.576  57.588  0.00  0.00    +0.000 A 
ATOM      6  C   UNL     1      36.670  58.609  58.178  0.00  0.00    +0.000 A 
ATOM      7  C   UNL     1      36.956  58.536  59.527  0.00  0.00    +0.000 A 
ATOM      8  C   UNL     1      36.535  57.443  60.254  0.00  0.00    +0.000 A 
ATOM      9  O   UNL     1      37.665  59.701  59.829  0.00  0.00    +0.000 OA
ATOM     10  C   UNL     1      37.502  60.638  58.792  0.00  0.00    +0.000 C 
ATOM     11  O   UNL     1      37.200  59.801  57.680  0.00  0.00    +0.000 OA
BRANCH   5  12
ATOM     12  O   UNL     1      35.690  57.674  56.220  0.00  0.00    +0.000 OA
ATOM     13  C   UNL     1      36.571  56.999  55.318  0.00  0.00    +0.000 C 
ENDBRANCH   5  12
ENDBRANCH   2   3
BRANCH   1  17
ATOM     14  C   UNL     1      40.222  53.847  59.572  0.00  0.00    +0.000 A 
ATOM     15  C   UNL     1      39.173  53.427  58.786  0.00  0.00    +0.000 A 
ATOM     16  C   UNL     1      37.897  53.591  59.222  0.00  0.00    +0.000 A 
ATOM     17  C   UNL     1      37.560  54.181  60.463  0.00  0.00    +0.000 A 
ATOM     18  C   UNL     1      38.606  54.583  61.212  0.00  0.00    +0.000 A 
ATOM     19  C   UNL     1      39.908  54.428  60.793  0.00  0.00    +0.000 A 
BRANCH  14  21
ATOM     20  C   UNL     1      41.819  52.630  58.260  0.00  0.00    +0.000 C 
ATOM     21  O   UNL     1      41.534  53.690  59.149  0.00  0.00    +0.000 OA
ENDBRANCH  14  21
ENDBRANCH   1  17
BRANCH   1  22
ATOM     22  C   UNL     1      35.514  53.124  61.477  0.00  0.00    +0.000 C 
ATOM     23  N   UNL     1      35.025  52.250  62.053  0.00  0.00    +0.000 NA
ENDBRANCH   1  22
TORSDOF 5
ENDMDL
MODEL 6
REMARK VINA RESULT:      -5.9      2.863      4.323
REMARK  Name = 
REMARK  5 active torsions:
REMARK  status: ('A' for Active; 'I' for Inactive)
REMARK    1  A    between atoms: O_2  and  C_3
REMARK    2  A    between atoms: C_6  and  C_7
REMARK    3  A    between atoms: C_7  and  C_8
REMARK    4  A    between atoms: C_10  and  C_11
REMARK    5  A    between atoms: C_13  and  O_14
REMARK                            x       y       z     vdW  Elec       q    Type
REMARK                         _______ _______ _______ _____ _____    ______ ____
ROOT
ATOM      1  C   UNL     1      35.715  58.325  60.046  0.00  0.00    +0.000 C 
ATOM      2  C   UNL     1      35.985  57.212  60.605  0.00  0.00    +0.000 C 
ENDROOT
BRANCH   2   3
ATOM      3  C   UNL     1      36.061  55.938  60.019  0.00  0.00    +0.000 A 
ATOM      4  C   UNL     1      37.288  55.477  59.514  0.00  0.00    +0.000 A 
ATOM      5  C   UNL     1      37.435  54.275  58.879  0.00  0.00    +0.000 A 
ATOM      6  C   UNL     1      36.338  53.449  58.711  0.00  0.00    +0.000 A 
ATOM      7  C   UNL     1      35.112  53.864  59.192  0.00  0.00    +0.000 A 
ATOM      8  C   UNL     1      35.007  55.084  59.826  0.00  0.00    +0.000 A 
ATOM      9  O   UNL     1      34.215  52.840  58.879  0.00  0.00    +0.000 OA
ATOM     10  C   UNL     1      34.925  51.671  58.551  0.00  0.00    +0.000 C 
ATOM     11  O   UNL     1      36.177  52.195  58.119  0.00  0.00    +0.000 OA
BRANCH   5  12
ATOM     12  O   UNL     1      38.665  53.831  58.381  0.00  0.00    +0.000 OA
ATOM     13  C   UNL     1      39.715  53.599  59.325  0.00  0.00    +0.000 C 
ENDBRANCH   5  12
ENDBRANCH   2   3
BRANCH   1  17
ATOM     14  C   UNL     1      35.244  58.691  55.832  0.00  0.00    +0.000 A 
ATOM     15  C   UNL     1      36.470  58.761  56.454  0.00  0.00    +0.000 A 
ATOM     16  C   UNL     1      36.549  58.627  57.804  0.00  0.00    +0.000 A 
ATOM     17  C   UNL     1      35.428  58.414  58.640  0.00  0.00    +0.000 A 
ATOM     18  C   UNL     1      34.241  58.349  58.005  0.00  0.00    +0.000 A 
ATOM     19  C   UNL     1      34.134  58.482  56.640  0.00  0.00    +0.000 A 
BRANCH  14  21
ATOM     20  C   UNL     1      36.277  58.537  53.674  0.00  0.00    +0.000 C 
ATOM     21  O   UNL     1      35.136  58.825  54.456  0.00  0.00    +0.000 OA
ENDBRANCH  14  21
ENDBRANCH   1  17
BRANCH   1  22
ATOM     22  C   UNL     1      35.698  59.547  60.870  0.00  0.00    +0.000 C 
ATOM     23  N   UNL     1      35.697  60.499  61.525  0.00  0.00    +0.000 NA
ENDBRANCH   1  22
TORSDOF 5
ENDMDL
MODEL 7
REMARK VINA RESULT:      -5.8      4.090      7.267
REMARK  Name = 
REMARK  5 active torsions:
REMARK  status: ('A' for Active; 'I' for Inactive)
REMARK    1  A    between atoms: O_2  and  C_3
REMARK    2  A    between atoms: C_6  and  C_7
REMARK    3  A    between atoms: C_7  and  C_8
REMARK    4  A    between atoms: C_10  and  C_11
REMARK    5  A    between atoms: C_13  and  O_14
REMARK                            x       y       z     vdW  Elec       q    Type
REMARK                         _______ _______ _______ _____ _____    ______ ____
ROOT
ATOM      1  C   UNL     1      36.784  56.920  59.774  0.00  0.00    +0.000 C 
ATOM      2  C   UNL     1      36.733  58.009  59.115  0.00  0.00    +0.000 C 
ENDROOT
BRANCH   2   3
ATOM      3  C   UNL     1      35.938  58.317  57.999  0.00  0.00    +0.000 A 
ATOM      4  C   UNL     1      36.333  57.882  56.723  0.00  0.00    +0.000 A 
ATOM      5  C   UNL     1      35.647  58.186  55.579  0.00  0.00    +0.000 A 
ATOM      6  C   UNL     1      34.501  58.958  55.652  0.00  0.00    +0.000 A 
ATOM      7  C   UNL     1      34.077  59.406  56.887  0.00  0.00    +0.000 A 
ATOM      8  C   UNL     1      34.798  59.077  58.015  0.00  0.00    +0.000 A 
ATOM      9  O   UNL     1      32.917  60.145  56.646  0.00  0.00    +0.000 OA
ATOM     10  C   UNL     1      32.430  59.857  55.358  0.00  0.00    +0.000 C 
ATOM     11  O   UNL     1      33.608  59.422  54.685  0.00  0.00    +0.000 OA
BRANCH   5  12
ATOM     12  O   UNL     1      36.055  57.746  54.316  0.00  0.00    +0.000 OA
ATOM     13  C   UNL     1      36.757  58.677  53.487  0.00  0.00    +0.000 C 
ENDBRANCH   5  12
ENDBRANCH   2   3
BRANCH   1  17
ATOM     14  C   UNL     1      34.133  53.678  59.010  0.00  0.00    +0.000 A 
ATOM     15  C   UNL     1      33.818  54.715  59.860  0.00  0.00    +0.000 A 
ATOM     16  C   UNL     1      34.709  55.723  60.051  0.00  0.00    +0.000 A 
ATOM     17  C   UNL     1      35.974  55.785  59.420  0.00  0.00    +0.000 A 
ATOM     18  C   UNL     1      36.256  54.758  58.595  0.00  0.00    +0.000 A 
ATOM     19  C   UNL     1      35.372  53.725  58.384  0.00  0.00    +0.000 A 
BRANCH  14  21
ATOM     20  C   UNL     1      33.727  51.316  58.930  0.00  0.00    +0.000 C 
ATOM     21  O   UNL     1      33.242  52.637  58.798  0.00  0.00    +0.000 OA
ENDBRANCH  14  21
ENDBRANCH   1  17
BRANCH   1  22
ATOM     22  C   UNL     1      37.700  56.828  60.925  0.00  0.00    +0.000 C 
ATOM     23  N   UNL     1      38.430  56.764  61.818  0.00  0.00    +0.000 NA
ENDBRANCH   1  22
TORSDOF 5
ENDMDL
MODEL 8
REMARK VINA RESULT:      -5.8      3.965      7.015
REMARK  Name = 
REMARK  5 active torsions:
REMARK  status: ('A' for Active; 'I' for Inactive)
REMARK    1  A    between atoms: O_2  and  C_3
REMARK    2  A    between atoms: C_6  and  C_7
REMARK    3  A    between atoms: C_7  and  C_8
REMARK    4  A    between atoms: C_10  and  C_11
REMARK    5  A    between atoms: C_13  and  O_14
REMARK                            x       y       z     vdW  Elec       q    Type
REMARK                         _______ _______ _______ _____ _____    ______ ____
ROOT
ATOM      1  C   UNL     1      36.809  57.561  59.763  0.00  0.00    +0.000 C 
ATOM      2  C   UNL     1      36.748  58.586  59.007  0.00  0.00    +0.000 C 
ENDROOT
BRANCH   2   3
ATOM      3  C   UNL     1      36.106  58.715  57.765  0.00  0.00    +0.000 A 
ATOM      4  C   UNL     1      34.760  59.116  57.717  0.00  0.00    +0.000 A 
ATOM      5  C   UNL     1      34.045  59.212  56.554  0.00  0.00    +0.000 A 
ATOM      6  C   UNL     1      34.653  58.907  55.349  0.00  0.00    +0.000 A 
ATOM      7  C   UNL     1      35.974  58.508  55.351  0.00  0.00    +0.000 A 
ATOM      8  C   UNL     1      36.659  58.424  56.546  0.00  0.00    +0.000 A 
ATOM      9  O   UNL     1      36.303  58.273  54.015  0.00  0.00    +0.000 OA
ATOM     10  C   UNL     1      35.337  58.861  53.178  0.00  0.00    +0.000 C 
ATOM     11  O   UNL     1      34.196  58.910  54.030  0.00  0.00    +0.000 OA
BRANCH   5  12
ATOM     12  O   UNL     1      32.705  59.612  56.524  0.00  0.00    +0.000 OA
ATOM     13  C   UNL     1      32.181  60.254  57.690  0.00  0.00    +0.000 C 
ENDBRANCH   5  12
ENDBRANCH   2   3
BRANCH   1  17
ATOM     14  C   UNL     1      34.682  53.963  58.962  0.00  0.00    +0.000 A 
ATOM     15  C   UNL     1      34.189  54.954  59.781  0.00  0.00    +0.000 A 
ATOM     16  C   UNL     1      34.918  56.082  59.985  0.00  0.00    +0.000 A 
ATOM     17  C   UNL     1      36.184  56.317  59.401  0.00  0.00    +0.000 A 
ATOM     18  C   UNL     1      36.643  55.331  58.605  0.00  0.00    +0.000 A 
ATOM     19  C   UNL     1      35.924  54.179  58.381  0.00  0.00    +0.000 A 
BRANCH  14  21
ATOM     20  C   UNL     1      34.526  51.578  59.156  0.00  0.00    +0.000 C 
ATOM     21  O   UNL     1      33.957  52.802  58.737  0.00  0.00    +0.000 OA
ENDBRANCH  14  21
ENDBRANCH   1  17
BRANCH   1  22
ATOM     22  C   UNL     1      37.544  57.662  61.037  0.00  0.00    +0.000 C 
ATOM     23  N   UNL     1      38.104  57.743  62.044  0.00  0.00    +0.000 NA
ENDBRANCH   1  22
TORSDOF 5
ENDMDL
MODEL 9
REMARK VINA RESULT:      -5.7      2.715      5.165
REMARK  Name = 
REMARK  5 active torsions:
REMARK  status: ('A' for Active; 'I' for Inactive)
REMARK    1  A    between atoms: O_2  and  C_3
REMARK    2  A    between atoms: C_6  and  C_7
REMARK    3  A    between atoms: C_7  and  C_8
REMARK    4  A    between atoms: C_10  and  C_11
REMARK    5  A    between atoms: C_13  and  O_14
REMARK                            x       y       z     vdW  Elec       q    Type
REMARK                         _______ _______ _______ _____ _____    ______ ____
ROOT
ATOM      1  C   UNL     1      35.154  52.848  59.444  0.00  0.00    +0.000 C 
ATOM      2  C   UNL     1      36.036  53.572  58.876  0.00  0.00    +0.000 C 
ENDROOT
BRANCH   2   3
ATOM      3  C   UNL     1      37.427  53.563  59.067  0.00  0.00    +0.000 A 
ATOM      4  C   UNL     1      37.993  54.344  60.087  0.00  0.00    +0.000 A 
ATOM      5  C   UNL     1      39.341  54.436  60.304  0.00  0.00    +0.000 A 
ATOM      6  C   UNL     1      40.214  53.732  59.494  0.00  0.00    +0.000 A 
ATOM      7  C   UNL     1      39.700  52.952  58.479  0.00  0.00    +0.000 A 
ATOM      8  C   UNL     1      38.335  52.888  58.294  0.00  0.00    +0.000 A 
ATOM      9  O   UNL     1      40.803  52.377  57.845  0.00  0.00    +0.000 OA
ATOM     10  C   UNL     1      41.938  52.497  58.667  0.00  0.00    +0.000 C 
ATOM     11  O   UNL     1      41.606  53.626  59.468  0.00  0.00    +0.000 OA
BRANCH   5  12
ATOM     12  O   UNL     1      39.889  55.220  61.325  0.00  0.00    +0.000 OA
ATOM     13  C   UNL     1      39.000  56.071  62.054  0.00  0.00    +0.000 C 
ENDBRANCH   5  12
ENDBRANCH   2   3
BRANCH   1  17
ATOM     14  C   UNL     1      36.150  50.218  62.639  0.00  0.00    +0.000 A 
ATOM     15  C   UNL     1      35.660  51.488  62.844  0.00  0.00    +0.000 A 
ATOM     16  C   UNL     1      35.354  52.272  61.777  0.00  0.00    +0.000 A 
ATOM     17  C   UNL     1      35.508  51.863  60.431  0.00  0.00    +0.000 A 
ATOM     18  C   UNL     1      35.989  50.616  60.259  0.00  0.00    +0.000 A 
ATOM     19  C   UNL     1      36.306  49.803  61.323  0.00  0.00    +0.000 A 
BRANCH  14  21
ATOM     20  C   UNL     1      35.407  48.817  64.438  0.00  0.00    +0.000 C 
ATOM     21  O   UNL     1      36.470  49.398  63.711  0.00  0.00    +0.000 OA
ENDBRANCH  14  21
ENDBRANCH   1  17
BRANCH   1  22
ATOM     22  C   UNL     1      33.739  53.032  59.076  0.00  0.00    +0.000 C 
ATOM     23  N   UNL     1      32.625  53.174  58.804  0.00  0.00    +0.000 NA
ENDBRANCH   1  22
TORSDOF 5
ENDMDL
MODEL 10
REMARK VINA RESULT:      -5.7      3.437      5.738
REMARK  Name = 
REMARK  5 active torsions:
REMARK  status: ('A' for Active; 'I' for Inactive)
REMARK    1  A    between atoms: O_2  and  C_3
REMARK    2  A    between atoms: C_6  and  C_7
REMARK    3  A    between atoms: C_7  and  C_8
REMARK    4  A    between atoms: C_10  and  C_11
REMARK    5  A    between atoms: C_13  and  O_14
REMARK                            x       y       z     vdW  Elec       q    Type
REMARK                         _______ _______ _______ _____ _____    ______ ____
ROOT
ATOM      1  C   UNL     1      35.216  52.207  59.613  0.00  0.00    +0.000 C 
ATOM      2  C   UNL     1      36.304  52.474  59.004  0.00  0.00    +0.000 C 
ENDROOT
BRANCH   2   3
ATOM      3  C   UNL     1      37.621  52.260  59.440  0.00  0.00    +0.000 A 
ATOM      4  C   UNL     1      38.412  53.354  59.826  0.00  0.00    +0.000 A 
ATOM      5  C   UNL     1      39.721  53.239  60.208  0.00  0.00    +0.000 A 
ATOM      6  C   UNL     1      40.321  51.992  60.228  0.00  0.00    +0.000 A 
ATOM      7  C   UNL     1      39.579  50.889  59.856  0.00  0.00    +0.000 A 
ATOM      8  C   UNL     1      38.263  51.050  59.477  0.00  0.00    +0.000 A 
ATOM      9  O   UNL     1      40.439  49.795  59.974  0.00  0.00    +0.000 OA
ATOM     10  C   UNL     1      41.559  50.153  60.746  0.00  0.00    +0.000 C 
ATOM     11  O   UNL     1      41.607  51.564  60.563  0.00  0.00    +0.000 OA
BRANCH   5  12
ATOM     12  O   UNL     1      40.496  54.339  60.588  0.00  0.00    +0.000 OA
ATOM     13  C   UNL     1      40.148  55.004  61.806  0.00  0.00    +0.000 C 
ENDBRANCH   5  12
ENDBRANCH   2   3
BRANCH   1  17
ATOM     14  C   UNL     1      35.058  50.123  63.320  0.00  0.00    +0.000 A 
ATOM     15  C   UNL     1      34.840  49.507  62.109  0.00  0.00    +0.000 A 
ATOM     16  C   UNL     1      34.915  50.231  60.962  0.00  0.00    +0.000 A 
ATOM     17  C   UNL     1      35.210  51.615  60.924  0.00  0.00    +0.000 A 
ATOM     18  C   UNL     1      35.419  52.192  62.123  0.00  0.00    +0.000 A 
ATOM     19  C   UNL     1      35.349  51.481  63.299  0.00  0.00    +0.000 A 
BRANCH  14  21
ATOM     20  C   UNL     1      35.490  48.085  64.508  0.00  0.00    +0.000 C 
ATOM     21  O   UNL     1      34.988  49.406  64.506  0.00  0.00    +0.000 OA
ENDBRANCH  14  21
ENDBRANCH   1  17
BRANCH   1  22
ATOM     22  C   UNL     1      33.937  52.519  58.950  0.00  0.00    +0.000 C 
ATOM     23  N   UNL     1      32.927  52.750  58.437  0.00  0.00    +0.000 NA
ENDBRANCH   1  22
TORSDOF 5
ENDMDL
