MODEL 1
REMARK VINA RESULT:      -6.0      0.000      0.000
REMARK  Name = 
REMARK  7 active torsions:
REMARK  status: ('A' for Active; 'I' for Inactive)
REMARK    1  A    between atoms: O_2  and  C_3
REMARK    2  A    between atoms: C_5  and  C_6
REMARK    3  A    between atoms: C_6  and  C_7
REMARK    4  A    between atoms: C_9  and  C_10
REMARK    5  A    between atoms: C_12  and  O_13
REMARK    6  A    between atoms: C_22  and  O_23
REMARK    7  A    between atoms: C_25  and  O_26
REMARK                            x       y       z     vdW  Elec       q    Type
REMARK                         _______ _______ _______ _____ _____    ______ ____
ROOT
ATOM      1  C   UNL     1      34.706  57.760  60.052  0.00  0.00    +0.000 C 
ATOM      2  C   UNL     1      35.046  56.647  60.549  0.00  0.00    +0.000 C 
ENDROOT
BRANCH   2   3
ATOM      3  C   UNL     1      35.937  55.679  59.987  0.00  0.00    +0.000 A 
ATOM      4  C   UNL     1      35.389  54.654  59.193  0.00  0.00    +0.000 A 
ATOM      5  C   UNL     1      36.137  53.639  58.644  0.00  0.00    +0.000 A 
ATOM      6  C   UNL     1      37.491  53.596  58.865  0.00  0.00    +0.000 A 
ATOM      7  C   UNL     1      38.078  54.575  59.635  0.00  0.00    +0.000 A 
ATOM      8  C   UNL     1      37.297  55.594  60.180  0.00  0.00    +0.000 A 
ATOM      9  O   UNL     1      39.429  54.274  59.682  0.00  0.00    +0.000 OA
ATOM     10  C   UNL     1      39.753  53.225  58.795  0.00  0.00    +0.000 C 
ATOM     11  O   UNL     1      38.462  52.709  58.444  0.00  0.00    +0.000 OA
BRANCH   5  12
ATOM     12  O   UNL     1      35.551  52.635  57.857  0.00  0.00    +0.000 OA
ATOM     13  C   UNL     1      35.188  51.437  58.513  0.00  0.00    +0.000 C 
ENDBRANCH   5  12
ENDBRANCH   2   3
BRANCH   1  16
ATOM     14  C   UNL     1      36.946  59.405  57.591  0.00  0.00    +0.000 A 
ATOM     15  C   UNL     1      36.432  58.881  58.758  0.00  0.00    +0.000 A 
ATOM     16  C   UNL     1      35.178  58.250  58.783  0.00  0.00    +0.000 A 
ATOM     17  C   UNL     1      34.533  58.202  57.590  0.00  0.00    +0.000 A 
ATOM     18  C   UNL     1      35.019  58.714  56.411  0.00  0.00    +0.000 A 
ATOM     19  C   UNL     1      36.259  59.334  56.397  0.00  0.00    +0.000 A 
BRANCH  14  21
ATOM     20  C   UNL     1      38.672  60.834  58.606  0.00  0.00    +0.000 C 
ATOM     21  O   UNL     1      38.183  60.029  57.557  0.00  0.00    +0.000 OA
ENDBRANCH  14  21
BRANCH  18  22
ATOM     22  O   UNL     1      34.346  58.655  55.201  0.00  0.00    +0.000 OA
ATOM     23  C   UNL     1      33.498  59.627  54.678  0.00  0.00    +0.000 C 
ENDBRANCH  18  22
BRANCH  19  24
ATOM     24  O   UNL     1      36.789  59.866  55.229  0.00  0.00    +0.000 OA
ATOM     25  C   UNL     1      37.494  59.083  54.288  0.00  0.00    +0.000 C 
ENDBRANCH  19  24
ENDBRANCH   1  16
BRANCH   1  26
ATOM     26  C   UNL     1      33.769  58.570  60.853  0.00  0.00    +0.000 C 
ATOM     27  N   UNL     1      33.043  59.203  61.488  0.00  0.00    +0.000 NA
ENDBRANCH   1  26
TORSDOF 7
ENDMDL
MODEL 2
REMARK VINA RESULT:      -6.0      2.285      3.668
REMARK  Name = 
REMARK  7 active torsions:
REMARK  status: ('A' for Active; 'I' for Inactive)
REMARK    1  A    between atoms: O_2  and  C_3
REMARK    2  A    between atoms: C_5  and  C_6
REMARK    3  A    between atoms: C_6  and  C_7
REMARK    4  A    between atoms: C_9  and  C_10
REMARK    5  A    between atoms: C_12  and  O_13
REMARK    6  A    between atoms: C_22  and  O_23
REMARK    7  A    between atoms: C_25  and  O_26
REMARK                            x       y       z     vdW  Elec       q    Type
REMARK                         _______ _______ _______ _____ _____    ______ ____
ROOT
ATOM      1  C   UNL     1      35.432  54.410  59.606  0.00  0.00    +0.000 C 
ATOM      2  C   UNL     1      36.223  53.454  59.857  0.00  0.00    +0.000 C 
ENDROOT
BRANCH   2   3
ATOM      3  C   UNL     1      37.641  53.426  59.669  0.00  0.00    +0.000 A 
ATOM      4  C   UNL     1      38.450  54.063  60.630  0.00  0.00    +0.000 A 
ATOM      5  C   UNL     1      39.818  54.148  60.530  0.00  0.00    +0.000 A 
ATOM      6  C   UNL     1      40.458  53.594  59.448  0.00  0.00    +0.000 A 
ATOM      7  C   UNL     1      39.713  52.959  58.480  0.00  0.00    +0.000 A 
ATOM      8  C   UNL     1      38.326  52.886  58.605  0.00  0.00    +0.000 A 
ATOM      9  O   UNL     1      40.614  52.508  57.531  0.00  0.00    +0.000 OA
ATOM     10  C   UNL     1      41.946  52.673  57.967  0.00  0.00    +0.000 C 
ATOM     11  O   UNL     1      41.794  53.535  59.103  0.00  0.00    +0.000 OA
BRANCH   5  12
ATOM     12  O   UNL     1      40.590  54.792  61.510  0.00  0.00    +0.000 OA
ATOM     13  C   UNL     1      39.891  55.455  62.543  0.00  0.00    +0.000 C 
ENDBRANCH   5  12
ENDBRANCH   2   3
BRANCH   1  16
ATOM     14  C   UNL     1      36.384  57.997  59.523  0.00  0.00    +0.000 A 
ATOM     15  C   UNL     1      36.014  56.743  59.961  0.00  0.00    +0.000 A 
ATOM     16  C   UNL     1      35.851  55.676  59.064  0.00  0.00    +0.000 A 
ATOM     17  C   UNL     1      36.082  55.978  57.761  0.00  0.00    +0.000 A 
ATOM     18  C   UNL     1      36.452  57.216  57.293  0.00  0.00    +0.000 A 
ATOM     19  C   UNL     1      36.612  58.263  58.188  0.00  0.00    +0.000 A 
BRANCH  14  21
ATOM     20  C   UNL     1      35.469  59.769  60.962  0.00  0.00    +0.000 C 
ATOM     21  O   UNL     1      36.549  59.055  60.402  0.00  0.00    +0.000 OA
ENDBRANCH  14  21
BRANCH  18  22
ATOM     22  O   UNL     1      36.685  57.506  55.959  0.00  0.00    +0.000 OA
ATOM     23  C   UNL     1      35.722  57.791  54.994  0.00  0.00    +0.000 C 
ENDBRANCH  18  22
BRANCH  19  24
ATOM     24  O   UNL     1      36.984  59.531  57.762  0.00  0.00    +0.000 OA
ATOM     25  C   UNL     1      36.043  60.506  57.364  0.00  0.00    +0.000 C 
ENDBRANCH  19  24
ENDBRANCH   1  16
BRANCH   1  26
ATOM     26  C   UNL     1      34.008  54.169  59.901  0.00  0.00    +0.000 C 
ATOM     27  N   UNL     1      32.893  53.988  60.139  0.00  0.00    +0.000 NA
ENDBRANCH   1  26
TORSDOF 7
ENDMDL
MODEL 3
REMARK VINA RESULT:      -6.0      2.105      6.459
REMARK  Name = 
REMARK  7 active torsions:
REMARK  status: ('A' for Active; 'I' for Inactive)
REMARK    1  A    between atoms: O_2  and  C_3
REMARK    2  A    between atoms: C_5  and  C_6
REMARK    3  A    between atoms: C_6  and  C_7
REMARK    4  A    between atoms: C_9  and  C_10
REMARK    5  A    between atoms: C_12  and  O_13
REMARK    6  A    between atoms: C_22  and  O_23
REMARK    7  A    between atoms: C_25  and  O_26
REMARK                            x       y       z     vdW  Elec       q    Type
REMARK                         _______ _______ _______ _____ _____    ______ ____
ROOT
ATOM      1  C   UNL     1      35.068  55.635  59.294  0.00  0.00    +0.000 C 
ATOM      2  C   UNL     1      34.705  56.560  58.511  0.00  0.00    +0.000 C 
ENDROOT
BRANCH   2   3
ATOM      3  C   UNL     1      35.533  57.545  57.886  0.00  0.00    +0.000 A 
ATOM      4  C   UNL     1      35.944  57.322  56.558  0.00  0.00    +0.000 A 
ATOM      5  C   UNL     1      36.782  58.169  55.872  0.00  0.00    +0.000 A 
ATOM      6  C   UNL     1      37.261  59.298  56.488  0.00  0.00    +0.000 A 
ATOM      7  C   UNL     1      36.890  59.564  57.787  0.00  0.00    +0.000 A 
ATOM      8  C   UNL     1      36.038  58.689  58.461  0.00  0.00    +0.000 A 
ATOM      9  O   UNL     1      37.517  60.748  58.136  0.00  0.00    +0.000 OA
ATOM     10  C   UNL     1      38.132  61.352  57.018  0.00  0.00    +0.000 C 
ATOM     11  O   UNL     1      38.100  60.301  56.044  0.00  0.00    +0.000 OA
BRANCH   5  12
ATOM     12  O   UNL     1      37.168  57.910  54.547  0.00  0.00    +0.000 OA
ATOM     13  C   UNL     1      36.419  58.539  53.527  0.00  0.00    +0.000 C 
ENDBRANCH   5  12
ENDBRANCH   2   3
BRANCH   1  16
ATOM     14  C   UNL     1      38.503  54.230  59.293  0.00  0.00    +0.000 A 
ATOM     15  C   UNL     1      37.198  54.517  58.952  0.00  0.00    +0.000 A 
ATOM     16  C   UNL     1      36.430  55.419  59.705  0.00  0.00    +0.000 A 
ATOM     17  C   UNL     1      37.067  55.969  60.769  0.00  0.00    +0.000 A 
ATOM     18  C   UNL     1      38.365  55.704  61.135  0.00  0.00    +0.000 A 
ATOM     19  C   UNL     1      39.115  54.812  60.384  0.00  0.00    +0.000 A 
BRANCH  14  21
ATOM     20  C   UNL     1      39.218  51.943  58.735  0.00  0.00    +0.000 C 
ATOM     21  O   UNL     1      39.269  53.341  58.555  0.00  0.00    +0.000 OA
ENDBRANCH  14  21
BRANCH  18  22
ATOM     22  O   UNL     1      38.999  56.276  62.226  0.00  0.00    +0.000 OA
ATOM     23  C   UNL     1      38.976  57.621  62.584  0.00  0.00    +0.000 C 
ENDBRANCH  18  22
BRANCH  19  24
ATOM     24  O   UNL     1      40.430  54.513  60.715  0.00  0.00    +0.000 OA
ATOM     25  C   UNL     1      40.769  53.544  61.685  0.00  0.00    +0.000 C 
ENDBRANCH  19  24
ENDBRANCH   1  16
BRANCH   1  26
ATOM     26  C   UNL     1      33.998  54.750  59.793  0.00  0.00    +0.000 C 
ATOM     27  N   UNL     1      33.155  54.066  60.185  0.00  0.00    +0.000 NA
ENDBRANCH   1  26
TORSDOF 7
ENDMDL
MODEL 4
REMARK VINA RESULT:      -6.0      0.255      2.351
REMARK  Name = 
REMARK  7 active torsions:
REMARK  status: ('A' for Active; 'I' for Inactive)
REMARK    1  A    between atoms: O_2  and  C_3
REMARK    2  A    between atoms: C_5  and  C_6
REMARK    3  A    between atoms: C_6  and  C_7
REMARK    4  A    between atoms: C_9  and  C_10
REMARK    5  A    between atoms: C_12  and  O_13
REMARK    6  A    between atoms: C_22  and  O_23
REMARK    7  A    between atoms: C_25  and  O_26
REMARK                            x       y       z     vdW  Elec       q    Type
REMARK                         _______ _______ _______ _____ _____    ______ ____
ROOT
ATOM      1  C   UNL     1      34.667  57.924  59.975  0.00  0.00    +0.000 C 
ATOM      2  C   UNL     1      34.901  56.775  60.450  0.00  0.00    +0.000 C 
ENDROOT
BRANCH   2   3
ATOM      3  C   UNL     1      35.794  55.785  59.932  0.00  0.00    +0.000 A 
ATOM      4  C   UNL     1      35.251  54.739  59.161  0.00  0.00    +0.000 A 
ATOM      5  C   UNL     1      36.001  53.703  58.656  0.00  0.00    +0.000 A 
ATOM      6  C   UNL     1      37.351  53.658  58.900  0.00  0.00    +0.000 A 
ATOM      7  C   UNL     1      37.932  54.657  59.648  0.00  0.00    +0.000 A 
ATOM      8  C   UNL     1      37.150  55.697  60.149  0.00  0.00    +0.000 A 
ATOM      9  O   UNL     1      39.280  54.349  59.725  0.00  0.00    +0.000 OA
ATOM     10  C   UNL     1      39.612  53.272  58.876  0.00  0.00    +0.000 C 
ATOM     11  O   UNL     1      38.323  52.753  58.521  0.00  0.00    +0.000 OA
BRANCH   5  12
ATOM     12  O   UNL     1      35.421  52.679  57.891  0.00  0.00    +0.000 OA
ATOM     13  C   UNL     1      35.067  51.492  58.572  0.00  0.00    +0.000 C 
ENDBRANCH   5  12
ENDBRANCH   2   3
BRANCH   1  16
ATOM     14  C   UNL     1      35.114  58.740  56.382  0.00  0.00    +0.000 A 
ATOM     15  C   UNL     1      34.582  58.300  57.575  0.00  0.00    +0.000 A 
ATOM     16  C   UNL     1      35.285  58.440  58.782  0.00  0.00    +0.000 A 
ATOM     17  C   UNL     1      36.502  59.031  58.674  0.00  0.00    +0.000 A 
ATOM     18  C   UNL     1      37.059  59.481  57.501  0.00  0.00    +0.000 A 
ATOM     19  C   UNL     1      36.355  59.338  56.315  0.00  0.00    +0.000 A 
BRANCH  14  21
ATOM     20  C   UNL     1      33.556  59.594  54.679  0.00  0.00    +0.000 C 
ATOM     21  O   UNL     1      34.426  58.606  55.186  0.00  0.00    +0.000 OA
ENDBRANCH  14  21
BRANCH  18  22
ATOM     22  O   UNL     1      38.303  60.083  57.411  0.00  0.00    +0.000 OA
ATOM     23  C   UNL     1      38.622  61.384  57.788  0.00  0.00    +0.000 C 
ENDBRANCH  18  22
BRANCH  19  24
ATOM     24  O   UNL     1      36.878  59.776  55.105  0.00  0.00    +0.000 OA
ATOM     25  C   UNL     1      37.608  58.931  54.241  0.00  0.00    +0.000 C 
ENDBRANCH  19  24
ENDBRANCH   1  16
BRANCH   1  26
ATOM     26  C   UNL     1      33.697  58.749  60.719  0.00  0.00    +0.000 C 
ATOM     27  N   UNL     1      32.942  59.391  61.310  0.00  0.00    +0.000 NA
ENDBRANCH   1  26
TORSDOF 7
ENDMDL
MODEL 5
REMARK VINA RESULT:      -5.9      2.120      6.200
REMARK  Name = 
REMARK  7 active torsions:
REMARK  status: ('A' for Active; 'I' for Inactive)
REMARK    1  A    between atoms: O_2  and  C_3
REMARK    2  A    between atoms: C_5  and  C_6
REMARK    3  A    between atoms: C_6  and  C_7
REMARK    4  A    between atoms: C_9  and  C_10
REMARK    5  A    between atoms: C_12  and  O_13
REMARK    6  A    between atoms: C_22  and  O_23
REMARK    7  A    between atoms: C_25  and  O_26
REMARK                            x       y       z     vdW  Elec       q    Type
REMARK                         _______ _______ _______ _____ _____    ______ ____
ROOT
ATOM      1  C   UNL     1      35.049  55.607  59.249  0.00  0.00    +0.000 C 
ATOM      2  C   UNL     1      34.710  56.565  58.495  0.00  0.00    +0.000 C 
ENDROOT
BRANCH   2   3
ATOM      3  C   UNL     1      35.570  57.501  57.838  0.00  0.00    +0.000 A 
ATOM      4  C   UNL     1      35.932  57.246  56.502  0.00  0.00    +0.000 A 
ATOM      5  C   UNL     1      36.793  58.043  55.785  0.00  0.00    +0.000 A 
ATOM      6  C   UNL     1      37.346  59.152  56.377  0.00  0.00    +0.000 A 
ATOM      7  C   UNL     1      37.025  59.447  57.683  0.00  0.00    +0.000 A 
ATOM      8  C   UNL     1      36.149  58.623  58.388  0.00  0.00    +0.000 A 
ATOM      9  O   UNL     1      37.721  60.601  58.002  0.00  0.00    +0.000 OA
ATOM     10  C   UNL     1      38.334  61.163  56.863  0.00  0.00    +0.000 C 
ATOM     11  O   UNL     1      38.222  60.106  55.900  0.00  0.00    +0.000 OA
BRANCH   5  12
ATOM     12  O   UNL     1      37.129  57.754  54.453  0.00  0.00    +0.000 OA
ATOM     13  C   UNL     1      36.513  58.538  53.452  0.00  0.00    +0.000 C 
ENDBRANCH   5  12
ENDBRANCH   2   3
BRANCH   1  16
ATOM     14  C   UNL     1      38.267  55.693  61.097  0.00  0.00    +0.000 A 
ATOM     15  C   UNL     1      36.959  55.914  60.721  0.00  0.00    +0.000 A 
ATOM     16  C   UNL     1      36.414  55.294  59.585  0.00  0.00    +0.000 A 
ATOM     17  C   UNL     1      37.263  54.480  58.910  0.00  0.00    +0.000 A 
ATOM     18  C   UNL     1      38.570  54.239  59.260  0.00  0.00    +0.000 A 
ATOM     19  C   UNL     1      39.099  54.856  60.383  0.00  0.00    +0.000 A 
BRANCH  14  21
ATOM     20  C   UNL     1      38.707  57.683  62.476  0.00  0.00    +0.000 C 
ATOM     21  O   UNL     1      38.814  56.300  62.217  0.00  0.00    +0.000 OA
ENDBRANCH  14  21
BRANCH  18  22
ATOM     22  O   UNL     1      39.422  53.403  58.557  0.00  0.00    +0.000 OA
ATOM     23  C   UNL     1      39.511  52.019  58.679  0.00  0.00    +0.000 C 
ENDBRANCH  18  22
BRANCH  19  24
ATOM     24  O   UNL     1      40.413  54.643  60.775  0.00  0.00    +0.000 OA
ATOM     25  C   UNL     1      40.772  53.675  61.740  0.00  0.00    +0.000 C 
ENDBRANCH  19  24
ENDBRANCH   1  16
BRANCH   1  26
ATOM     26  C   UNL     1      33.950  54.789  59.793  0.00  0.00    +0.000 C 
ATOM     27  N   UNL     1      33.094  54.140  60.216  0.00  0.00    +0.000 NA
ENDBRANCH   1  26
TORSDOF 7
ENDMDL
MODEL 6
REMARK VINA RESULT:      -5.9      1.755      3.417
REMARK  Name = 
REMARK  7 active torsions:
REMARK  status: ('A' for Active; 'I' for Inactive)
REMARK    1  A    between atoms: O_2  and  C_3
REMARK    2  A    between atoms: C_5  and  C_6
REMARK    3  A    between atoms: C_6  and  C_7
REMARK    4  A    between atoms: C_9  and  C_10
REMARK    5  A    between atoms: C_12  and  O_13
REMARK    6  A    between atoms: C_22  and  O_23
REMARK    7  A    between atoms: C_25  and  O_26
REMARK                            x       y       z     vdW  Elec       q    Type
REMARK                         _______ _______ _______ _____ _____    ______ ____
ROOT
ATOM      1  C   UNL     1      36.644  57.989  59.974  0.00  0.00    +0.000 C 
ATOM      2  C   UNL     1      36.724  56.864  60.548  0.00  0.00    +0.000 C 
ENDROOT
BRANCH   2   3
ATOM      3  C   UNL     1      36.270  55.601  60.052  0.00  0.00    +0.000 A 
ATOM      4  C   UNL     1      37.226  54.713  59.522  0.00  0.00    +0.000 A 
ATOM      5  C   UNL     1      36.904  53.496  58.970  0.00  0.00    +0.000 A 
ATOM      6  C   UNL     1      35.591  53.099  58.916  0.00  0.00    +0.000 A 
ATOM      7  C   UNL     1      34.617  53.930  59.421  0.00  0.00    +0.000 A 
ATOM      8  C   UNL     1      34.969  55.159  59.977  0.00  0.00    +0.000 A 
ATOM      9  O   UNL     1      33.411  53.275  59.232  0.00  0.00    +0.000 OA
ATOM     10  C   UNL     1      33.610  51.950  58.788  0.00  0.00    +0.000 C 
ATOM     11  O   UNL     1      34.998  51.952  58.426  0.00  0.00    +0.000 OA
BRANCH   5  12
ATOM     12  O   UNL     1      37.888  52.639  58.451  0.00  0.00    +0.000 OA
ATOM     13  C   UNL     1      39.218  53.115  58.453  0.00  0.00    +0.000 C 
ENDBRANCH   5  12
ENDBRANCH   2   3
BRANCH   1  16
ATOM     14  C   UNL     1      34.093  58.891  57.433  0.00  0.00    +0.000 A 
ATOM     15  C   UNL     1      34.745  58.697  58.633  0.00  0.00    +0.000 A 
ATOM     16  C   UNL     1      36.053  58.189  58.677  0.00  0.00    +0.000 A 
ATOM     17  C   UNL     1      36.605  57.913  57.469  0.00  0.00    +0.000 A 
ATOM     18  C   UNL     1      35.982  58.095  56.258  0.00  0.00    +0.000 A 
ATOM     19  C   UNL     1      34.690  58.598  56.225  0.00  0.00    +0.000 A 
BRANCH  14  21
ATOM     20  C   UNL     1      32.467  60.708  57.764  0.00  0.00    +0.000 C 
ATOM     21  O   UNL     1      32.802  59.393  57.380  0.00  0.00    +0.000 OA
ENDBRANCH  14  21
BRANCH  18  22
ATOM     22  O   UNL     1      36.562  57.808  55.033  0.00  0.00    +0.000 OA
ATOM     23  C   UNL     1      37.536  58.560  54.382  0.00  0.00    +0.000 C 
ENDBRANCH  18  22
BRANCH  19  24
ATOM     24  O   UNL     1      34.021  58.799  55.025  0.00  0.00    +0.000 OA
ATOM     25  C   UNL     1      34.067  60.025  54.325  0.00  0.00    +0.000 C 
ENDBRANCH  19  24
ENDBRANCH   1  16
BRANCH   1  26
ATOM     26  C   UNL     1      37.201  59.136  60.715  0.00  0.00    +0.000 C 
ATOM     27  N   UNL     1      37.644  60.035  61.287  0.00  0.00    +0.000 NA
ENDBRANCH   1  26
TORSDOF 7
ENDMDL
MODEL 7
REMARK VINA RESULT:      -5.8      2.278      4.273
REMARK  Name = 
REMARK  7 active torsions:
REMARK  status: ('A' for Active; 'I' for Inactive)
REMARK    1  A    between atoms: O_2  and  C_3
REMARK    2  A    between atoms: C_5  and  C_6
REMARK    3  A    between atoms: C_6  and  C_7
REMARK    4  A    between atoms: C_9  and  C_10
REMARK    5  A    between atoms: C_12  and  O_13
REMARK    6  A    between atoms: C_22  and  O_23
REMARK    7  A    between atoms: C_25  and  O_26
REMARK                            x       y       z     vdW  Elec       q    Type
REMARK                         _______ _______ _______ _____ _____    ______ ____
ROOT
ATOM      1  C   UNL     1      35.449  54.440  59.710  0.00  0.00    +0.000 C 
ATOM      2  C   UNL     1      36.220  53.441  59.804  0.00  0.00    +0.000 C 
ENDROOT
BRANCH   2   3
ATOM      3  C   UNL     1      37.640  53.419  59.631  0.00  0.00    +0.000 A 
ATOM      4  C   UNL     1      38.437  54.054  60.603  0.00  0.00    +0.000 A 
ATOM      5  C   UNL     1      39.806  54.145  60.517  0.00  0.00    +0.000 A 
ATOM      6  C   UNL     1      40.459  53.599  59.440  0.00  0.00    +0.000 A 
ATOM      7  C   UNL     1      39.726  52.966  58.461  0.00  0.00    +0.000 A 
ATOM      8  C   UNL     1      38.338  52.887  58.571  0.00  0.00    +0.000 A 
ATOM      9  O   UNL     1      40.638  52.523  57.518  0.00  0.00    +0.000 OA
ATOM     10  C   UNL     1      41.965  52.690  57.969  0.00  0.00    +0.000 C 
ATOM     11  O   UNL     1      41.798  53.546  59.108  0.00  0.00    +0.000 OA
BRANCH   5  12
ATOM     12  O   UNL     1      40.565  54.787  61.508  0.00  0.00    +0.000 OA
ATOM     13  C   UNL     1      39.854  55.405  62.561  0.00  0.00    +0.000 C 
ENDBRANCH   5  12
ENDBRANCH   2   3
BRANCH   1  16
ATOM     14  C   UNL     1      36.370  57.387  57.651  0.00  0.00    +0.000 A 
ATOM     15  C   UNL     1      35.929  56.141  58.042  0.00  0.00    +0.000 A 
ATOM     16  C   UNL     1      35.895  55.772  59.396  0.00  0.00    +0.000 A 
ATOM     17  C   UNL     1      36.324  56.723  60.263  0.00  0.00    +0.000 A 
ATOM     18  C   UNL     1      36.769  57.973  59.905  0.00  0.00    +0.000 A 
ATOM     19  C   UNL     1      36.798  58.328  58.565  0.00  0.00    +0.000 A 
BRANCH  14  21
ATOM     20  C   UNL     1      35.273  58.216  55.611  0.00  0.00    +0.000 C 
ATOM     21  O   UNL     1      36.406  57.760  56.316  0.00  0.00    +0.000 OA
ENDBRANCH  14  21
BRANCH  18  22
ATOM     22  O   UNL     1      37.204  58.932  60.805  0.00  0.00    +0.000 OA
ATOM     23  C   UNL     1      37.730  58.699  62.073  0.00  0.00    +0.000 C 
ENDBRANCH  18  22
BRANCH  19  24
ATOM     24  O   UNL     1      37.240  59.579  58.156  0.00  0.00    +0.000 OA
ATOM     25  C   UNL     1      36.387  60.703  58.091  0.00  0.00    +0.000 C 
ENDBRANCH  19  24
ENDBRANCH   1  16
BRANCH   1  26
ATOM     26  C   UNL     1      34.017  54.178  59.944  0.00  0.00    +0.000 C 
ATOM     27  N   UNL     1      32.893  53.983  60.122  0.00  0.00    +0.000 NA
ENDBRANCH   1  26
TORSDOF 7
ENDMDL
MODEL 8
REMARK VINA RESULT:      -5.8      1.728      3.043
REMARK  Name = 
REMARK  7 active torsions:
REMARK  status: ('A' for Active; 'I' for Inactive)
REMARK    1  A    between atoms: O_2  and  C_3
REMARK    2  A    between atoms: C_5  and  C_6
REMARK    3  A    between atoms: C_6  and  C_7
REMARK    4  A    between atoms: C_9  and  C_10
REMARK    5  A    between atoms: C_12  and  O_13
REMARK    6  A    between atoms: C_22  and  O_23
REMARK    7  A    between atoms: C_25  and  O_26
REMARK                            x       y       z     vdW  Elec       q    Type
REMARK                         _______ _______ _______ _____ _____    ______ ____
ROOT
ATOM      1  C   UNL     1      36.528  58.028  60.034  0.00  0.00    +0.000 C 
ATOM      2  C   UNL     1      36.720  56.897  60.569  0.00  0.00    +0.000 C 
ENDROOT
BRANCH   2   3
ATOM      3  C   UNL     1      36.317  55.619  60.069  0.00  0.00    +0.000 A 
ATOM      4  C   UNL     1      37.303  54.786  59.506  0.00  0.00    +0.000 A 
ATOM      5  C   UNL     1      37.028  53.561  58.946  0.00  0.00    +0.000 A 
ATOM      6  C   UNL     1      35.736  53.098  58.919  0.00  0.00    +0.000 A 
ATOM      7  C   UNL     1      34.734  53.874  59.458  0.00  0.00    +0.000 A 
ATOM      8  C   UNL     1      35.038  55.113  60.020  0.00  0.00    +0.000 A 
ATOM      9  O   UNL     1      33.559  53.161  59.290  0.00  0.00    +0.000 OA
ATOM     10  C   UNL     1      33.813  51.853  58.825  0.00  0.00    +0.000 C 
ATOM     11  O   UNL     1      35.189  51.929  58.429  0.00  0.00    +0.000 OA
BRANCH   5  12
ATOM     12  O   UNL     1      38.041  52.760  58.393  0.00  0.00    +0.000 OA
ATOM     13  C   UNL     1      38.627  51.793  59.240  0.00  0.00    +0.000 C 
ENDBRANCH   5  12
ENDBRANCH   2   3
BRANCH   1  16
ATOM     14  C   UNL     1      35.989  58.169  56.364  0.00  0.00    +0.000 A 
ATOM     15  C   UNL     1      36.563  57.983  57.604  0.00  0.00    +0.000 A 
ATOM     16  C   UNL     1      35.839  58.217  58.784  0.00  0.00    +0.000 A 
ATOM     17  C   UNL     1      34.560  58.631  58.602  0.00  0.00    +0.000 A 
ATOM     18  C   UNL     1      33.960  58.825  57.382  0.00  0.00    +0.000 A 
ATOM     19  C   UNL     1      34.683  58.591  56.222  0.00  0.00    +0.000 A 
BRANCH  14  21
ATOM     20  C   UNL     1      37.679  58.822  54.699  0.00  0.00    +0.000 C 
ATOM     21  O   UNL     1      36.696  57.940  55.194  0.00  0.00    +0.000 OA
ENDBRANCH  14  21
BRANCH  18  22
ATOM     22  O   UNL     1      32.651  59.248  57.216  0.00  0.00    +0.000 OA
ATOM     23  C   UNL     1      32.149  60.514  57.504  0.00  0.00    +0.000 C 
ENDBRANCH  18  22
BRANCH  19  24
ATOM     24  O   UNL     1      34.119  58.773  54.967  0.00  0.00    +0.000 OA
ATOM     25  C   UNL     1      34.154  60.012  54.290  0.00  0.00    +0.000 C 
ENDBRANCH  19  24
ENDBRANCH   1  16
BRANCH   1  26
ATOM     26  C   UNL     1      37.057  59.192  60.768  0.00  0.00    +0.000 C 
ATOM     27  N   UNL     1      37.474  60.096  61.351  0.00  0.00    +0.000 NA
ENDBRANCH   1  26
TORSDOF 7
ENDMDL
MODEL 9
REMARK VINA RESULT:      -5.8      5.051      8.156
REMARK  Name = 
REMARK  7 active torsions:
REMARK  status: ('A' for Active; 'I' for Inactive)
REMARK    1  A    between atoms: O_2  and  C_3
REMARK    2  A    between atoms: C_5  and  C_6
REMARK    3  A    between atoms: C_6  and  C_7
REMARK    4  A    between atoms: C_9  and  C_10
REMARK    5  A    between atoms: C_12  and  O_13
REMARK    6  A    between atoms: C_22  and  O_23
REMARK    7  A    between atoms: C_25  and  O_26
REMARK                            x       y       z     vdW  Elec       q    Type
REMARK                         _______ _______ _______ _____ _____    ______ ____
ROOT
ATOM      1  C   UNL     1      35.445  53.194  60.150  0.00  0.00    +0.000 C 
ATOM      2  C   UNL     1      36.274  53.900  59.505  0.00  0.00    +0.000 C 
ENDROOT
BRANCH   2   3
ATOM      3  C   UNL     1      37.693  53.733  59.439  0.00  0.00    +0.000 A 
ATOM      4  C   UNL     1      38.478  54.311  60.455  0.00  0.00    +0.000 A 
ATOM      5  C   UNL     1      39.851  54.263  60.471  0.00  0.00    +0.000 A 
ATOM      6  C   UNL     1      40.522  53.626  59.456  0.00  0.00    +0.000 A 
ATOM      7  C   UNL     1      39.802  53.043  58.438  0.00  0.00    +0.000 A 
ATOM      8  C   UNL     1      38.409  53.105  58.445  0.00  0.00    +0.000 A 
ATOM      9  O   UNL     1      40.732  52.486  57.575  0.00  0.00    +0.000 OA
ATOM     10  C   UNL     1      42.032  52.533  58.121  0.00  0.00    +0.000 C 
ATOM     11  O   UNL     1      41.870  53.432  59.227  0.00  0.00    +0.000 OA
BRANCH   5  12
ATOM     12  O   UNL     1      40.598  54.854  61.503  0.00  0.00    +0.000 OA
ATOM     13  C   UNL     1      40.693  54.136  62.717  0.00  0.00    +0.000 C 
ENDBRANCH   5  12
ENDBRANCH   2   3
BRANCH   1  16
ATOM     14  C   UNL     1      36.126  51.198  63.204  0.00  0.00    +0.000 A 
ATOM     15  C   UNL     1      35.762  52.221  62.354  0.00  0.00    +0.000 A 
ATOM     16  C   UNL     1      35.814  52.063  60.960  0.00  0.00    +0.000 A 
ATOM     17  C   UNL     1      36.242  50.848  60.534  0.00  0.00    +0.000 A 
ATOM     18  C   UNL     1      36.611  49.810  61.354  0.00  0.00    +0.000 A 
ATOM     19  C   UNL     1      36.556  49.976  62.730  0.00  0.00    +0.000 A 
BRANCH  14  21
ATOM     20  C   UNL     1      34.882  51.268  65.326  0.00  0.00    +0.000 C 
ATOM     21  O   UNL     1      36.078  51.345  64.582  0.00  0.00    +0.000 OA
ENDBRANCH  14  21
BRANCH  18  22
ATOM     22  O   UNL     1      37.046  48.575  60.900  0.00  0.00    +0.000 OA
ATOM     23  C   UNL     1      38.339  48.249  60.500  0.00  0.00    +0.000 C 
ENDBRANCH  18  22
BRANCH  19  24
ATOM     24  O   UNL     1      36.919  48.955  63.598  0.00  0.00    +0.000 OA
ATOM     25  C   UNL     1      36.019  47.945  64.004  0.00  0.00    +0.000 C 
ENDBRANCH  19  24
ENDBRANCH   1  16
BRANCH   1  26
ATOM     26  C   UNL     1      34.029  53.589  60.036  0.00  0.00    +0.000 C 
ATOM     27  N   UNL     1      32.918  53.892  59.955  0.00  0.00    +0.000 NA
ENDBRANCH   1  26
TORSDOF 7
ENDMDL
MODEL 10
REMARK VINA RESULT:      -5.7      5.773      8.871
REMARK  Name = 
REMARK  7 active torsions:
REMARK  status: ('A' for Active; 'I' for Inactive)
REMARK    1  A    between atoms: O_2  and  C_3
REMARK    2  A    between atoms: C_5  and  C_6
REMARK    3  A    between atoms: C_6  and  C_7
REMARK    4  A    between atoms: C_9  and  C_10
REMARK    5  A    between atoms: C_12  and  O_13
REMARK    6  A    between atoms: C_22  and  O_23
REMARK    7  A    between atoms: C_25  and  O_26
REMARK                            x       y       z     vdW  Elec       q    Type
REMARK                         _______ _______ _______ _____ _____    ______ ____
ROOT
ATOM      1  C   UNL     1      35.249  51.970  59.693  0.00  0.00    +0.000 C 
ATOM      2  C   UNL     1      36.323  52.235  59.078  0.00  0.00    +0.000 C 
ENDROOT
BRANCH   2   3
ATOM      3  C   UNL     1      37.661  51.968  59.510  0.00  0.00    +0.000 A 
ATOM      4  C   UNL     1      38.483  53.062  59.839  0.00  0.00    +0.000 A 
ATOM      5  C   UNL     1      39.799  52.934  60.214  0.00  0.00    +0.000 A 
ATOM      6  C   UNL     1      40.371  51.687  60.280  0.00  0.00    +0.000 A 
ATOM      7  C   UNL     1      39.609  50.583  59.969  0.00  0.00    +0.000 A 
ATOM      8  C   UNL     1      38.276  50.739  59.592  0.00  0.00    +0.000 A 
ATOM      9  O   UNL     1      40.439  49.485  60.123  0.00  0.00    +0.000 OA
ATOM     10  C   UNL     1      41.667  49.847  60.715  0.00  0.00    +0.000 C 
ATOM     11  O   UNL     1      41.644  51.278  60.621  0.00  0.00    +0.000 OA
BRANCH   5  12
ATOM     12  O   UNL     1      40.587  54.052  60.534  0.00  0.00    +0.000 OA
ATOM     13  C   UNL     1      40.208  54.798  61.673  0.00  0.00    +0.000 C 
ENDBRANCH   5  12
ENDBRANCH   2   3
BRANCH   1  16
ATOM     14  C   UNL     1      34.635  49.335  62.234  0.00  0.00    +0.000 A 
ATOM     15  C   UNL     1      34.742  50.008  61.036  0.00  0.00    +0.000 A 
ATOM     16  C   UNL     1      35.199  51.335  60.984  0.00  0.00    +0.000 A 
ATOM     17  C   UNL     1      35.517  51.882  62.184  0.00  0.00    +0.000 A 
ATOM     18  C   UNL     1      35.422  51.237  63.394  0.00  0.00    +0.000 A 
ATOM     19  C   UNL     1      34.970  49.927  63.434  0.00  0.00    +0.000 A 
BRANCH  14  21
ATOM     20  C   UNL     1      32.840  47.659  62.078  0.00  0.00    +0.000 C 
ATOM     21  O   UNL     1      34.185  48.025  62.295  0.00  0.00    +0.000 OA
ENDBRANCH  14  21
BRANCH  18  22
ATOM     22  O   UNL     1      35.752  51.812  64.610  0.00  0.00    +0.000 OA
ATOM     23  C   UNL     1      37.034  52.120  65.059  0.00  0.00    +0.000 C 
ENDBRANCH  18  22
BRANCH  19  24
ATOM     24  O   UNL     1      34.857  49.236  64.633  0.00  0.00    +0.000 OA
ATOM     25  C   UNL     1      35.902  48.442  65.155  0.00  0.00    +0.000 C 
ENDBRANCH  19  24
ENDBRANCH   1  16
BRANCH   1  26
ATOM     26  C   UNL     1      34.000  52.353  59.010  0.00  0.00    +0.000 C 
ATOM     27  N   UNL     1      33.016  52.646  58.483  0.00  0.00    +0.000 NA
ENDBRANCH   1  26
TORSDOF 7
ENDMDL
