REMARK  Name = 
REMARK  7 active torsions:
REMARK  status: ('A' for Active; 'I' for Inactive)
REMARK    1  A    between atoms: O_2  and  C_3
REMARK    2  A    between atoms: C_5  and  C_6
REMARK    3  A    between atoms: C_7  and  C_8
REMARK    4  A    between atoms: C_7  and  C_10
REMARK    5  A    between atoms: C_12  and  O_13
REMARK    6  A    between atoms: C_22  and  O_23
REMARK    7  A    between atoms: C_25  and  O_26
REMARK                            x       y       z     vdW  Elec       q    Type
REMARK                         _______ _______ _______ _____ _____    ______ ____
ROOT
ATOM      1  C   UNL     1      -0.212   0.913   0.185  0.00  0.00    +0.000 C 
ATOM      2  C   UNL     1       0.593  -0.124  -0.039  0.00  0.00    +0.000 C 
ENDROOT
BRANCH   2   3
ATOM      3  C   UNL     1       2.039  -0.025   0.097  0.00  0.00    +0.000 A 
ATOM      4  C   UNL     1       2.809  -1.131  -0.149  0.00  0.00    +0.000 A 
ATOM      5  C   UNL     1       4.190  -1.129  -0.044  0.00  0.00    +0.000 A 
ATOM      6  C   UNL     1       4.803   0.039   0.324  0.00  0.00    +0.000 A 
ATOM      7  C   UNL     1       4.047   1.163   0.577  0.00  0.00    +0.000 A 
ATOM      8  C   UNL     1       2.674   1.139   0.466  0.00  0.00    +0.000 A 
ATOM      9  O   UNL     1       4.934   2.160   0.918  0.00  0.00    +0.000 OA
ATOM     10  C   UNL     1       6.209   1.599   1.175  0.00  0.00    +0.000 C 
ATOM     11  O   UNL     1       6.140   0.343   0.508  0.00  0.00    +0.000 OA
BRANCH   5  12
ATOM     12  O   UNL     1       4.872  -2.298  -0.315  0.00  0.00    +0.000 OA
ATOM     13  C   UNL     1       4.211  -3.483  -0.691  0.00  0.00    +0.000 C 
ENDBRANCH   5  12
ENDBRANCH   2   3
BRANCH   1  16
ATOM     14  C   UNL     1      -3.929   1.199   0.711  0.00  0.00    +0.000 A 
ATOM     15  C   UNL     1      -2.568   1.360   0.853  0.00  0.00    +0.000 A 
ATOM     16  C   UNL     1      -1.652   0.737   0.029  0.00  0.00    +0.000 A 
ATOM     17  C   UNL     1      -2.177  -0.072  -0.963  0.00  0.00    +0.000 A 
ATOM     18  C   UNL     1      -3.534  -0.254  -1.130  0.00  0.00    +0.000 A 
ATOM     19  C   UNL     1      -4.428   0.381  -0.293  0.00  0.00    +0.000 A 
BRANCH  14  21
ATOM     20  C   UNL     1      -4.237   2.692   2.599  0.00  0.00    +0.000 C 
ATOM     21  O   UNL     1      -4.769   1.865   1.586  0.00  0.00    +0.000 OA
ENDBRANCH  14  21
BRANCH  18  22
ATOM     22  O   UNL     1      -4.044  -1.070  -2.132  0.00  0.00    +0.000 OA
ATOM     23  C   UNL     1      -3.156  -1.739  -3.014  0.00  0.00    +0.000 C 
ENDBRANCH  18  22
BRANCH  19  24
ATOM     24  O   UNL     1      -5.798   0.249  -0.397  0.00  0.00    +0.000 OA
ATOM     25  C   UNL     1      -6.489  -0.771   0.307  0.00  0.00    +0.000 C 
ENDBRANCH  19  24
ENDBRANCH   1  16
BRANCH   2  26
ATOM     26  C   UNL     1      -0.017  -1.363  -0.425  0.00  0.00    +0.000 C 
ATOM     27  N   UNL     1      -0.510  -2.379  -0.744  0.00  0.00    +0.000 NA
ENDBRANCH   2  26
TORSDOF 7
