REMARK  Name = 
REMARK  5 active torsions:
REMARK  status: ('A' for Active; 'I' for Inactive)
REMARK    1  A    between atoms: O_2  and  C_3
REMARK    2  A    between atoms: C_5  and  C_6
REMARK    3  A    between atoms: C_7  and  C_9
REMARK    4  A    between atoms: C_19  and  O_20
REMARK    5  A    between atoms: C_22  and  O_23
REMARK                            x       y       z     vdW  Elec       q    Type
REMARK                         _______ _______ _______ _____ _____    ______ ____
ROOT
ATOM      1  C   UNL     1       1.665   1.380  -0.231  0.00  0.00    +0.000 A 
ATOM      2  C   UNL     1       0.780   0.688  -0.998  0.00  0.00    +0.000 A 
ATOM      3  C   UNL     1       0.927  -0.599  -1.443  0.00  0.00    +0.000 A 
ATOM      4  C   UNL     1       2.133  -1.202  -1.029  0.00  0.00    +0.000 A 
ATOM      5  C   UNL     1       3.057  -0.548  -0.257  0.00  0.00    +0.000 A 
ATOM      6  C   UNL     1       2.829   0.751   0.149  0.00  0.00    +0.000 A 
ENDROOT
BRANCH   3   7
ATOM      7  C   UNL     1       0.072  -1.394  -2.237  0.00  0.00    +0.000 C 
ATOM      8  C   UNL     1      -1.185  -1.576  -2.094  0.00  0.00    +0.000 C 
ATOM      9  C   UNL     1      -1.863  -2.490  -3.110  0.00  0.00    +0.000 C 
BRANCH   8  10
ATOM     10  C   UNL     1      -1.957  -1.024  -1.035  0.00  0.00    +0.000 A 
ATOM     11  C   UNL     1      -3.336  -1.247  -1.027  0.00  0.00    +0.000 A 
ATOM     12  C   UNL     1      -4.153  -0.778  -0.040  0.00  0.00    +0.000 A 
ATOM     13  C   UNL     1      -3.643  -0.051   1.010  0.00  0.00    +0.000 A 
ATOM     14  C   UNL     1      -2.285   0.183   1.027  0.00  0.00    +0.000 A 
ATOM     15  C   UNL     1      -1.488  -0.305   0.015  0.00  0.00    +0.000 A 
ATOM     16  O   UNL     1      -2.032   0.923   2.168  0.00  0.00    +0.000 OA
ATOM     17  C   UNL     1      -3.250   1.409   2.705  0.00  0.00    +0.000 C 
ATOM     18  O   UNL     1      -4.205   0.545   2.138  0.00  0.00    +0.000 OA
ENDBRANCH   8  10
ENDBRANCH   3   7
BRANCH   1  20
ATOM     19  C   UNL     1       0.265   3.399  -0.172  0.00  0.00    +0.000 C 
ATOM     20  O   UNL     1       1.435   2.696   0.180  0.00  0.00    +0.000 OA
ENDBRANCH   1  20
BRANCH   5  21
ATOM     21  O   UNL     1       4.248  -1.141   0.154  0.00  0.00    +0.000 OA
ATOM     22  C   UNL     1       4.492  -2.464  -0.254  0.00  0.00    +0.000 C 
ENDBRANCH   5  21
BRANCH   6  23
ATOM     23  O   UNL     1       3.742   1.421   0.922  0.00  0.00    +0.000 OA
ATOM     24  C   UNL     1       3.751   1.423   2.336  0.00  0.00    +0.000 C 
ENDBRANCH   6  23
TORSDOF 5
