MODEL 1
REMARK VINA RESULT:      -6.6      0.000      0.000
REMARK  Name = 
REMARK  2 active torsions:
REMARK  status: ('A' for Active; 'I' for Inactive)
REMARK    1  A    between atoms: C_5  and  C_6
REMARK    2  A    between atoms: C_7  and  C_8
REMARK                            x       y       z     vdW  Elec       q    Type
REMARK                         _______ _______ _______ _____ _____    ______ ____
ROOT
ATOM      1  C   UNL     1      29.556  45.374  62.488  0.00  0.00    +0.000 C 
ATOM      2  C   UNL     1      29.629  44.236  61.984  0.00  0.00    +0.000 C 
ENDROOT
BRANCH   2   3
ATOM      3  C   UNL     1      28.543  43.311  61.895  0.00  0.00    +0.000 A 
ATOM      4  C   UNL     1      28.552  42.171  62.714  0.00  0.00    +0.000 A 
ATOM      5  C   UNL     1      27.538  41.256  62.667  0.00  0.00    +0.000 A 
ATOM      6  O   UNL     1      27.547  40.134  63.473  0.00  0.00    +0.000 OA
ATOM      7  C   UNL     1      26.459  41.404  61.819  0.00  0.00    +0.000 A 
ATOM      8  C   UNL     1      26.435  42.536  60.995  0.00  0.00    +0.000 A 
ATOM      9  O   UNL     1      25.391  42.747  60.125  0.00  0.00    +0.000 OA
ATOM     10  C   UNL     1      27.479  43.431  61.077  0.00  0.00    +0.000 A 
ENDBRANCH   2   3
BRANCH   1  15
ATOM     11  O   UNL     1      25.109  48.411  64.278  0.00  0.00    +0.000 OA
ATOM     12  C   UNL     1      26.197  47.647  63.891  0.00  0.00    +0.000 A 
ATOM     13  C   UNL     1      26.745  47.704  62.634  0.00  0.00    +0.000 A 
ATOM     14  C   UNL     1      27.814  46.969  62.216  0.00  0.00    +0.000 A 
ATOM     15  C   UNL     1      28.455  46.060  63.091  0.00  0.00    +0.000 A 
ATOM     16  C   UNL     1      27.908  46.012  64.324  0.00  0.00    +0.000 A 
ATOM     17  C   UNL     1      26.831  46.748  64.756  0.00  0.00    +0.000 A 
ENDBRANCH   1  15
TORSDOF 2
ENDMDL
MODEL 2
REMARK VINA RESULT:      -6.4      0.417      2.297
REMARK  Name = 
REMARK  2 active torsions:
REMARK  status: ('A' for Active; 'I' for Inactive)
REMARK    1  A    between atoms: C_5  and  C_6
REMARK    2  A    between atoms: C_7  and  C_8
REMARK                            x       y       z     vdW  Elec       q    Type
REMARK                         _______ _______ _______ _____ _____    ______ ____
ROOT
ATOM      1  C   UNL     1      29.633  45.023  62.418  0.00  0.00    +0.000 C 
ATOM      2  C   UNL     1      29.672  43.824  62.074  0.00  0.00    +0.000 C 
ENDROOT
BRANCH   2   3
ATOM      3  C   UNL     1      28.531  42.975  61.940  0.00  0.00    +0.000 A 
ATOM      4  C   UNL     1      27.652  43.180  60.865  0.00  0.00    +0.000 A 
ATOM      5  C   UNL     1      26.548  42.396  60.692  0.00  0.00    +0.000 A 
ATOM      6  O   UNL     1      25.683  42.599  59.634  0.00  0.00    +0.000 OA
ATOM      7  C   UNL     1      26.240  41.366  61.558  0.00  0.00    +0.000 A 
ATOM      8  C   UNL     1      27.107  41.147  62.635  0.00  0.00    +0.000 A 
ATOM      9  O   UNL     1      26.862  40.138  63.538  0.00  0.00    +0.000 OA
ATOM     10  C   UNL     1      28.209  41.964  62.770  0.00  0.00    +0.000 A 
ENDBRANCH   2   3
BRANCH   1  15
ATOM     11  O   UNL     1      25.335  48.139  64.424  0.00  0.00    +0.000 OA
ATOM     12  C   UNL     1      26.373  47.397  63.884  0.00  0.00    +0.000 A 
ATOM     13  C   UNL     1      27.187  46.588  64.636  0.00  0.00    +0.000 A 
ATOM     14  C   UNL     1      28.217  45.844  64.142  0.00  0.00    +0.000 A 
ATOM     15  C   UNL     1      28.525  45.859  62.761  0.00  0.00    +0.000 A 
ATOM     16  C   UNL     1      27.718  46.658  62.030  0.00  0.00    +0.000 A 
ATOM     17  C   UNL     1      26.677  47.412  62.518  0.00  0.00    +0.000 A 
ENDBRANCH   1  15
TORSDOF 2
ENDMDL
MODEL 3
REMARK VINA RESULT:      -6.1     12.942     14.813
REMARK  Name = 
REMARK  2 active torsions:
REMARK  status: ('A' for Active; 'I' for Inactive)
REMARK    1  A    between atoms: C_5  and  C_6
REMARK    2  A    between atoms: C_7  and  C_8
REMARK                            x       y       z     vdW  Elec       q    Type
REMARK                         _______ _______ _______ _____ _____    ______ ____
ROOT
ATOM      1  C   UNL     1      35.059  57.440  59.656  0.00  0.00    +0.000 C 
ATOM      2  C   UNL     1      35.037  56.362  60.283  0.00  0.00    +0.000 C 
ENDROOT
BRANCH   2   3
ATOM      3  C   UNL     1      35.137  55.068  59.687  0.00  0.00    +0.000 A 
ATOM      4  C   UNL     1      33.961  54.369  59.373  0.00  0.00    +0.000 A 
ATOM      5  C   UNL     1      34.003  53.129  58.802  0.00  0.00    +0.000 A 
ATOM      6  O   UNL     1      32.845  52.442  58.494  0.00  0.00    +0.000 OA
ATOM      7  C   UNL     1      35.196  52.502  58.505  0.00  0.00    +0.000 A 
ATOM      8  C   UNL     1      36.379  53.185  58.811  0.00  0.00    +0.000 A 
ATOM      9  O   UNL     1      37.604  52.619  58.543  0.00  0.00    +0.000 OA
ATOM     10  C   UNL     1      36.288  54.434  59.387  0.00  0.00    +0.000 A 
ENDBRANCH   2   3
BRANCH   1  15
ATOM     11  O   UNL     1      34.939  58.813  54.151  0.00  0.00    +0.000 OA
ATOM     12  C   UNL     1      35.017  58.453  55.486  0.00  0.00    +0.000 A 
ATOM     13  C   UNL     1      34.057  58.785  56.409  0.00  0.00    +0.000 A 
ATOM     14  C   UNL     1      34.097  58.449  57.730  0.00  0.00    +0.000 A 
ATOM     15  C   UNL     1      35.179  57.703  58.256  0.00  0.00    +0.000 A 
ATOM     16  C   UNL     1      36.116  57.380  57.339  0.00  0.00    +0.000 A 
ATOM     17  C   UNL     1      36.086  57.714  56.006  0.00  0.00    +0.000 A 
ENDBRANCH   1  15
TORSDOF 2
ENDMDL
MODEL 4
REMARK VINA RESULT:      -6.0     12.978     14.793
REMARK  Name = 
REMARK  2 active torsions:
REMARK  status: ('A' for Active; 'I' for Inactive)
REMARK    1  A    between atoms: C_5  and  C_6
REMARK    2  A    between atoms: C_7  and  C_8
REMARK                            x       y       z     vdW  Elec       q    Type
REMARK                         _______ _______ _______ _____ _____    ______ ____
ROOT
ATOM      1  C   UNL     1      35.135  57.483  59.722  0.00  0.00    +0.000 C 
ATOM      2  C   UNL     1      35.089  56.396  60.332  0.00  0.00    +0.000 C 
ENDROOT
BRANCH   2   3
ATOM      3  C   UNL     1      35.110  55.109  59.712  0.00  0.00    +0.000 A 
ATOM      4  C   UNL     1      36.347  54.515  59.417  0.00  0.00    +0.000 A 
ATOM      5  C   UNL     1      36.422  53.287  58.825  0.00  0.00    +0.000 A 
ATOM      6  O   UNL     1      37.639  52.703  58.534  0.00  0.00    +0.000 OA
ATOM      7  C   UNL     1      35.292  52.568  58.488  0.00  0.00    +0.000 A 
ATOM      8  C   UNL     1      34.050  53.146  58.776  0.00  0.00    +0.000 A 
ATOM      9  O   UNL     1      32.882  52.486  58.468  0.00  0.00    +0.000 OA
ATOM     10  C   UNL     1      34.023  54.387  59.374  0.00  0.00    +0.000 A 
ENDBRANCH   2   3
BRANCH   1  15
ATOM     11  O   UNL     1      34.840  58.899  54.235  0.00  0.00    +0.000 OA
ATOM     12  C   UNL     1      34.961  58.530  55.564  0.00  0.00    +0.000 A 
ATOM     13  C   UNL     1      34.003  58.804  56.508  0.00  0.00    +0.000 A 
ATOM     14  C   UNL     1      34.086  58.458  57.825  0.00  0.00    +0.000 A 
ATOM     15  C   UNL     1      35.215  57.764  58.322  0.00  0.00    +0.000 A 
ATOM     16  C   UNL     1      36.150  57.500  57.385  0.00  0.00    +0.000 A 
ATOM     17  C   UNL     1      36.077  57.844  56.056  0.00  0.00    +0.000 A 
ENDBRANCH   1  15
TORSDOF 2
ENDMDL
MODEL 5
REMARK VINA RESULT:      -6.0     13.053     15.551
REMARK  Name = 
REMARK  2 active torsions:
REMARK  status: ('A' for Active; 'I' for Inactive)
REMARK    1  A    between atoms: C_5  and  C_6
REMARK    2  A    between atoms: C_7  and  C_8
REMARK                            x       y       z     vdW  Elec       q    Type
REMARK                         _______ _______ _______ _____ _____    ______ ____
ROOT
ATOM      1  C   UNL     1      36.266  56.309  59.908  0.00  0.00    +0.000 C 
ATOM      2  C   UNL     1      36.347  57.442  59.393  0.00  0.00    +0.000 C 
ENDROOT
BRANCH   2   3
ATOM      3  C   UNL     1      35.714  57.831  58.172  0.00  0.00    +0.000 A 
ATOM      4  C   UNL     1      34.480  58.497  58.228  0.00  0.00    +0.000 A 
ATOM      5  C   UNL     1      33.834  58.891  57.090  0.00  0.00    +0.000 A 
ATOM      6  O   UNL     1      32.620  59.547  57.145  0.00  0.00    +0.000 OA
ATOM      7  C   UNL     1      34.358  58.656  55.835  0.00  0.00    +0.000 A 
ATOM      8  C   UNL     1      35.588  57.993  55.761  0.00  0.00    +0.000 A 
ATOM      9  O   UNL     1      36.169  57.725  54.543  0.00  0.00    +0.000 OA
ATOM     10  C   UNL     1      36.203  57.614  56.935  0.00  0.00    +0.000 A 
ENDBRANCH   2   3
BRANCH   1  15
ATOM     11  O   UNL     1      32.987  51.873  58.577  0.00  0.00    +0.000 OA
ATOM     12  C   UNL     1      33.827  52.934  58.871  0.00  0.00    +0.000 A 
ATOM     13  C   UNL     1      33.464  53.974  59.689  0.00  0.00    +0.000 A 
ATOM     14  C   UNL     1      34.261  55.035  60.002  0.00  0.00    +0.000 A 
ATOM     15  C   UNL     1      35.572  55.135  59.478  0.00  0.00    +0.000 A 
ATOM     16  C   UNL     1      35.919  54.107  58.674  0.00  0.00    +0.000 A 
ATOM     17  C   UNL     1      35.123  53.033  58.353  0.00  0.00    +0.000 A 
ENDBRANCH   1  15
TORSDOF 2
ENDMDL
MODEL 6
REMARK VINA RESULT:      -6.0     13.059     15.535
REMARK  Name = 
REMARK  2 active torsions:
REMARK  status: ('A' for Active; 'I' for Inactive)
REMARK    1  A    between atoms: C_5  and  C_6
REMARK    2  A    between atoms: C_7  and  C_8
REMARK                            x       y       z     vdW  Elec       q    Type
REMARK                         _______ _______ _______ _____ _____    ______ ____
ROOT
ATOM      1  C   UNL     1      36.350  56.258  59.833  0.00  0.00    +0.000 C 
ATOM      2  C   UNL     1      36.401  57.406  59.348  0.00  0.00    +0.000 C 
ENDROOT
BRANCH   2   3
ATOM      3  C   UNL     1      35.691  57.834  58.184  0.00  0.00    +0.000 A 
ATOM      4  C   UNL     1      36.259  57.611  56.920  0.00  0.00    +0.000 A 
ATOM      5  C   UNL     1      35.621  58.000  55.776  0.00  0.00    +0.000 A 
ATOM      6  O   UNL     1      36.181  57.781  54.533  0.00  0.00    +0.000 OA
ATOM      7  C   UNL     1      34.392  58.628  55.803  0.00  0.00    +0.000 A 
ATOM      8  C   UNL     1      33.811  58.858  57.056  0.00  0.00    +0.000 A 
ATOM      9  O   UNL     1      32.588  59.480  57.158  0.00  0.00    +0.000 OA
ATOM     10  C   UNL     1      34.492  58.448  58.182  0.00  0.00    +0.000 A 
ENDBRANCH   2   3
BRANCH   1  15
ATOM     11  O   UNL     1      32.981  51.865  58.586  0.00  0.00    +0.000 OA
ATOM     12  C   UNL     1      33.841  52.917  58.855  0.00  0.00    +0.000 A 
ATOM     13  C   UNL     1      33.539  53.926  59.735  0.00  0.00    +0.000 A 
ATOM     14  C   UNL     1      34.357  54.977  60.026  0.00  0.00    +0.000 A 
ATOM     15  C   UNL     1      35.626  55.099  59.412  0.00  0.00    +0.000 A 
ATOM     16  C   UNL     1      35.914  54.101  58.549  0.00  0.00    +0.000 A 
ATOM     17  C   UNL     1      35.096  53.037  58.248  0.00  0.00    +0.000 A 
ENDBRANCH   1  15
TORSDOF 2
ENDMDL
MODEL 7
REMARK VINA RESULT:      -5.7     12.121     14.159
REMARK  Name = 
REMARK  2 active torsions:
REMARK  status: ('A' for Active; 'I' for Inactive)
REMARK    1  A    between atoms: C_5  and  C_6
REMARK    2  A    between atoms: C_7  and  C_8
REMARK                            x       y       z     vdW  Elec       q    Type
REMARK                         _______ _______ _______ _____ _____    ______ ____
ROOT
ATOM      1  C   UNL     1      35.649  54.047  58.954  0.00  0.00    +0.000 C 
ATOM      2  C   UNL     1      36.698  54.618  58.595  0.00  0.00    +0.000 C 
ENDROOT
BRANCH   2   3
ATOM      3  C   UNL     1      38.010  54.280  59.051  0.00  0.00    +0.000 A 
ATOM      4  C   UNL     1      38.489  54.859  60.236  0.00  0.00    +0.000 A 
ATOM      5  C   UNL     1      39.735  54.569  60.714  0.00  0.00    +0.000 A 
ATOM      6  O   UNL     1      40.207  55.139  61.880  0.00  0.00    +0.000 OA
ATOM      7  C   UNL     1      40.583  53.696  60.062  0.00  0.00    +0.000 A 
ATOM      8  C   UNL     1      40.120  53.109  58.879  0.00  0.00    +0.000 A 
ATOM      9  O   UNL     1      40.911  52.230  58.176  0.00  0.00    +0.000 OA
ATOM     10  C   UNL     1      38.856  53.431  58.434  0.00  0.00    +0.000 A 
ENDBRANCH   2   3
BRANCH   1  15
ATOM     11  O   UNL     1      34.749  49.348  62.007  0.00  0.00    +0.000 OA
ATOM     12  C   UNL     1      34.974  50.523  61.309  0.00  0.00    +0.000 A 
ATOM     13  C   UNL     1      34.991  50.590  59.939  0.00  0.00    +0.000 A 
ATOM     14  C   UNL     1      35.209  51.725  59.216  0.00  0.00    +0.000 A 
ATOM     15  C   UNL     1      35.440  52.962  59.863  0.00  0.00    +0.000 A 
ATOM     16  C   UNL     1      35.421  52.886  61.211  0.00  0.00    +0.000 A 
ATOM     17  C   UNL     1      35.203  51.746  61.949  0.00  0.00    +0.000 A 
ENDBRANCH   1  15
TORSDOF 2
ENDMDL
MODEL 8
REMARK VINA RESULT:      -5.7     12.119     14.184
REMARK  Name = 
REMARK  2 active torsions:
REMARK  status: ('A' for Active; 'I' for Inactive)
REMARK    1  A    between atoms: C_5  and  C_6
REMARK    2  A    between atoms: C_7  and  C_8
REMARK                            x       y       z     vdW  Elec       q    Type
REMARK                         _______ _______ _______ _____ _____    ______ ____
ROOT
ATOM      1  C   UNL     1      35.632  54.085  59.049  0.00  0.00    +0.000 C 
ATOM      2  C   UNL     1      36.673  54.687  58.721  0.00  0.00    +0.000 C 
ENDROOT
BRANCH   2   3
ATOM      3  C   UNL     1      37.984  54.372  59.196  0.00  0.00    +0.000 A 
ATOM      4  C   UNL     1      38.783  53.489  58.454  0.00  0.00    +0.000 A 
ATOM      5  C   UNL     1      40.042  53.156  58.865  0.00  0.00    +0.000 A 
ATOM      6  O   UNL     1      40.828  52.286  58.135  0.00  0.00    +0.000 OA
ATOM      7  C   UNL     1      40.592  53.668  60.023  0.00  0.00    +0.000 A 
ATOM      8  C   UNL     1      39.808  54.551  60.774  0.00  0.00    +0.000 A 
ATOM      9  O   UNL     1      40.292  55.100  61.940  0.00  0.00    +0.000 OA
ATOM     10  C   UNL     1      38.543  54.858  60.321  0.00  0.00    +0.000 A 
ENDBRANCH   2   3
BRANCH   1  15
ATOM     11  O   UNL     1      34.770  49.314  61.999  0.00  0.00    +0.000 OA
ATOM     12  C   UNL     1      34.985  50.506  61.326  0.00  0.00    +0.000 A 
ATOM     13  C   UNL     1      35.000  50.602  59.958  0.00  0.00    +0.000 A 
ATOM     14  C   UNL     1      35.209  51.755  59.260  0.00  0.00    +0.000 A 
ATOM     15  C   UNL     1      35.432  52.979  59.934  0.00  0.00    +0.000 A 
ATOM     16  C   UNL     1      35.415  52.873  61.280  0.00  0.00    +0.000 A 
ATOM     17  C   UNL     1      35.206  51.716  61.993  0.00  0.00    +0.000 A 
ENDBRANCH   1  15
TORSDOF 2
ENDMDL
MODEL 9
REMARK VINA RESULT:      -5.7     16.187     18.700
REMARK  Name = 
REMARK  2 active torsions:
REMARK  status: ('A' for Active; 'I' for Inactive)
REMARK    1  A    between atoms: C_5  and  C_6
REMARK    2  A    between atoms: C_7  and  C_8
REMARK                            x       y       z     vdW  Elec       q    Type
REMARK                         _______ _______ _______ _____ _____    ______ ____
ROOT
ATOM      1  C   UNL     1      36.287  57.815  54.568  0.00  0.00    +0.000 C 
ATOM      2  C   UNL     1      35.655  58.550  53.783  0.00  0.00    +0.000 C 
ENDROOT
BRANCH   2   3
ATOM      3  C   UNL     1      34.845  59.659  54.176  0.00  0.00    +0.000 A 
ATOM      4  C   UNL     1      35.368  60.957  54.064  0.00  0.00    +0.000 A 
ATOM      5  C   UNL     1      34.634  62.051  54.426  0.00  0.00    +0.000 A 
ATOM      6  O   UNL     1      35.149  63.328  54.316  0.00  0.00    +0.000 OA
ATOM      7  C   UNL     1      33.348  61.939  54.916  0.00  0.00    +0.000 A 
ATOM      8  C   UNL     1      32.812  60.652  55.034  0.00  0.00    +0.000 A 
ATOM      9  O   UNL     1      31.537  60.465  55.515  0.00  0.00    +0.000 OA
ATOM     10  C   UNL     1      33.589  59.577  54.657  0.00  0.00    +0.000 A 
ENDBRANCH   2   3
BRANCH   1  15
ATOM     11  O   UNL     1      36.577  57.261  60.209  0.00  0.00    +0.000 OA
ATOM     12  C   UNL     1      36.517  57.450  58.838  0.00  0.00    +0.000 A 
ATOM     13  C   UNL     1      36.260  56.434  57.952  0.00  0.00    +0.000 A 
ATOM     14  C   UNL     1      36.194  56.580  56.598  0.00  0.00    +0.000 A 
ATOM     15  C   UNL     1      36.393  57.845  55.994  0.00  0.00    +0.000 A 
ATOM     16  C   UNL     1      36.644  58.837  56.875  0.00  0.00    +0.000 A 
ATOM     17  C   UNL     1      36.714  58.700  58.241  0.00  0.00    +0.000 A 
ENDBRANCH   1  15
TORSDOF 2
ENDMDL
MODEL 10
REMARK VINA RESULT:      -5.6      3.432      4.679
REMARK  Name = 
REMARK  2 active torsions:
REMARK  status: ('A' for Active; 'I' for Inactive)
REMARK    1  A    between atoms: C_5  and  C_6
REMARK    2  A    between atoms: C_7  and  C_8
REMARK                            x       y       z     vdW  Elec       q    Type
REMARK                         _______ _______ _______ _____ _____    ______ ____
ROOT
ATOM      1  C   UNL     1      28.952  43.349  62.431  0.00  0.00    +0.000 C 
ATOM      2  C   UNL     1      29.683  42.515  61.862  0.00  0.00    +0.000 C 
ENDROOT
BRANCH   2   3
ATOM      3  C   UNL     1      30.749  42.840  60.967  0.00  0.00    +0.000 A 
ATOM      4  C   UNL     1      30.503  42.837  59.585  0.00  0.00    +0.000 A 
ATOM      5  C   UNL     1      31.487  43.140  58.688  0.00  0.00    +0.000 A 
ATOM      6  O   UNL     1      31.244  43.137  57.328  0.00  0.00    +0.000 OA
ATOM      7  C   UNL     1      32.767  43.464  59.090  0.00  0.00    +0.000 A 
ATOM      8  C   UNL     1      33.030  43.472  60.465  0.00  0.00    +0.000 A 
ATOM      9  O   UNL     1      34.284  43.785  60.937  0.00  0.00    +0.000 OA
ATOM     10  C   UNL     1      32.006  43.159  61.333  0.00  0.00    +0.000 A 
ENDBRANCH   2   3
BRANCH   1  15
ATOM     11  O   UNL     1      28.246  48.971  62.120  0.00  0.00    +0.000 OA
ATOM     12  C   UNL     1      28.472  47.607  62.202  0.00  0.00    +0.000 A 
ATOM     13  C   UNL     1      27.470  46.675  62.112  0.00  0.00    +0.000 A 
ATOM     14  C   UNL     1      27.653  45.325  62.188  0.00  0.00    +0.000 A 
ATOM     15  C   UNL     1      28.944  44.778  62.374  0.00  0.00    +0.000 A 
ATOM     16  C   UNL     1      29.923  45.705  62.461  0.00  0.00    +0.000 A 
ATOM     17  C   UNL     1      29.750  47.067  62.386  0.00  0.00    +0.000 A 
ENDBRANCH   1  15
TORSDOF 2
ENDMDL
