MODEL 1
REMARK VINA RESULT:      -6.5      0.000      0.000
REMARK  Name = 
REMARK  3 active torsions:
REMARK  status: ('A' for Active; 'I' for Inactive)
REMARK    1  A    between atoms: O_2  and  C_3
REMARK    2  A    between atoms: C_6  and  C_7
REMARK    3  A    between atoms: C_8  and  C_9
REMARK                            x       y       z     vdW  Elec       q    Type
REMARK                         _______ _______ _______ _____ _____    ______ ____
ROOT
ATOM      1  C   UNL     1      30.906  45.988  62.189  0.00  0.00    +0.000 C 
ATOM      2  C   UNL     1      29.911  45.518  62.898  0.00  0.00    +0.000 C 
ENDROOT
BRANCH   2   3
ATOM      3  C   UNL     1      28.715  46.382  63.016  0.00  0.00    +0.000 A 
ATOM      4  C   UNL     1      28.439  47.368  62.081  0.00  0.00    +0.000 A 
ATOM      5  C   UNL     1      27.339  48.184  62.165  0.00  0.00    +0.000 A 
ATOM      6  O   UNL     1      27.120  49.147  61.201  0.00  0.00    +0.000 OA
ATOM      7  C   UNL     1      26.463  48.049  63.193  0.00  0.00    +0.000 A 
ATOM      8  C   UNL     1      26.732  47.062  64.135  0.00  0.00    +0.000 A 
ATOM      9  O   UNL     1      25.800  46.961  65.178  0.00  0.00    +0.000 OA
ATOM     10  C   UNL     1      27.833  46.239  64.061  0.00  0.00    +0.000 A 
ENDBRANCH   2   3
BRANCH   1  14
ATOM     11  C   UNL     1      34.546  43.944  61.384  0.00  0.00    +0.000 A 
ATOM     12  C   UNL     1      34.516  44.949  62.326  0.00  0.00    +0.000 A 
ATOM     13  C   UNL     1      33.326  45.626  62.596  0.00  0.00    +0.000 A 
ATOM     14  C   UNL     1      32.156  45.319  61.944  0.00  0.00    +0.000 A 
ATOM     15  C   UNL     1      32.196  44.315  61.005  0.00  0.00    +0.000 A 
ATOM     16  C   UNL     1      33.377  43.639  60.733  0.00  0.00    +0.000 A 
BRANCH  11  18
ATOM     17  C   UNL     1      36.349  43.374  59.837  0.00  0.00    +0.000 C 
ATOM     18  O   UNL     1      35.723  43.239  61.083  0.00  0.00    +0.000 OA
ENDBRANCH  11  18
ENDBRANCH   1  14
TORSDOF 3
ENDMDL
MODEL 2
REMARK VINA RESULT:      -6.5      0.333      1.954
REMARK  Name = 
REMARK  3 active torsions:
REMARK  status: ('A' for Active; 'I' for Inactive)
REMARK    1  A    between atoms: O_2  and  C_3
REMARK    2  A    between atoms: C_6  and  C_7
REMARK    3  A    between atoms: C_8  and  C_9
REMARK                            x       y       z     vdW  Elec       q    Type
REMARK                         _______ _______ _______ _____ _____    ______ ____
ROOT
ATOM      1  C   UNL     1      30.759  46.029  62.180  0.00  0.00    +0.000 C 
ATOM      2  C   UNL     1      29.678  45.521  62.716  0.00  0.00    +0.000 C 
ENDROOT
BRANCH   2   3
ATOM      3  C   UNL     1      28.527  46.437  62.881  0.00  0.00    +0.000 A 
ATOM      4  C   UNL     1      27.656  46.319  63.955  0.00  0.00    +0.000 A 
ATOM      5  C   UNL     1      26.582  47.153  64.134  0.00  0.00    +0.000 A 
ATOM      6  O   UNL     1      25.752  46.983  65.225  0.00  0.00    +0.000 OA
ATOM      7  C   UNL     1      26.328  48.145  63.243  0.00  0.00    +0.000 A 
ATOM      8  C   UNL     1      27.195  48.270  62.164  0.00  0.00    +0.000 A 
ATOM      9  O   UNL     1      26.892  49.309  61.271  0.00  0.00    +0.000 OA
ATOM     10  C   UNL     1      28.276  47.439  61.974  0.00  0.00    +0.000 A 
ENDBRANCH   2   3
BRANCH   1  14
ATOM     11  C   UNL     1      34.328  43.871  61.359  0.00  0.00    +0.000 A 
ATOM     12  C   UNL     1      34.347  44.915  62.258  0.00  0.00    +0.000 A 
ATOM     13  C   UNL     1      33.180  45.629  62.534  0.00  0.00    +0.000 A 
ATOM     14  C   UNL     1      31.986  45.323  61.928  0.00  0.00    +0.000 A 
ATOM     15  C   UNL     1      31.976  44.280  61.032  0.00  0.00    +0.000 A 
ATOM     16  C   UNL     1      33.134  43.566  60.755  0.00  0.00    +0.000 A 
BRANCH  11  18
ATOM     17  C   UNL     1      35.640  42.520  59.803  0.00  0.00    +0.000 C 
ATOM     18  O   UNL     1      35.480  43.128  61.055  0.00  0.00    +0.000 OA
ENDBRANCH  11  18
ENDBRANCH   1  14
TORSDOF 3
ENDMDL
MODEL 3
REMARK VINA RESULT:      -6.2      1.059      1.060
REMARK  Name = 
REMARK  3 active torsions:
REMARK  status: ('A' for Active; 'I' for Inactive)
REMARK    1  A    between atoms: O_2  and  C_3
REMARK    2  A    between atoms: C_6  and  C_7
REMARK    3  A    between atoms: C_8  and  C_9
REMARK                            x       y       z     vdW  Elec       q    Type
REMARK                         _______ _______ _______ _____ _____    ______ ____
ROOT
ATOM      1  C   UNL     1      30.492  45.251  61.950  0.00  0.00    +0.000 C 
ATOM      2  C   UNL     1      29.986  45.519  63.128  0.00  0.00    +0.000 C 
ENDROOT
BRANCH   2   3
ATOM      3  C   UNL     1      28.775  46.370  63.150  0.00  0.00    +0.000 A 
ATOM      4  C   UNL     1      28.545  47.328  62.175  0.00  0.00    +0.000 A 
ATOM      5  C   UNL     1      27.432  48.131  62.169  0.00  0.00    +0.000 A 
ATOM      6  O   UNL     1      27.262  49.067  61.169  0.00  0.00    +0.000 OA
ATOM      7  C   UNL     1      26.496  48.010  63.145  0.00  0.00    +0.000 A 
ATOM      8  C   UNL     1      26.718  47.051  64.127  0.00  0.00    +0.000 A 
ATOM      9  O   UNL     1      25.723  46.963  65.112  0.00  0.00    +0.000 OA
ATOM     10  C   UNL     1      27.831  46.241  64.142  0.00  0.00    +0.000 A 
ENDBRANCH   2   3
BRANCH   1  14
ATOM     11  C   UNL     1      33.899  42.856  61.097  0.00  0.00    +0.000 A 
ATOM     12  C   UNL     1      33.779  43.467  62.325  0.00  0.00    +0.000 A 
ATOM     13  C   UNL     1      32.664  44.256  62.614  0.00  0.00    +0.000 A 
ATOM     14  C   UNL     1      31.659  44.448  61.698  0.00  0.00    +0.000 A 
ATOM     15  C   UNL     1      31.787  43.834  60.475  0.00  0.00    +0.000 A 
ATOM     16  C   UNL     1      32.894  43.049  60.183  0.00  0.00    +0.000 A 
BRANCH  11  18
ATOM     17  C   UNL     1      34.879  40.976  59.882  0.00  0.00    +0.000 C 
ATOM     18  O   UNL     1      35.004  42.055  60.768  0.00  0.00    +0.000 OA
ENDBRANCH  11  18
ENDBRANCH   1  14
TORSDOF 3
ENDMDL
MODEL 4
REMARK VINA RESULT:      -6.2     12.604     13.727
REMARK  Name = 
REMARK  3 active torsions:
REMARK  status: ('A' for Active; 'I' for Inactive)
REMARK    1  A    between atoms: O_2  and  C_3
REMARK    2  A    between atoms: C_6  and  C_7
REMARK    3  A    between atoms: C_8  and  C_9
REMARK                            x       y       z     vdW  Elec       q    Type
REMARK                         _______ _______ _______ _____ _____    ______ ____
ROOT
ATOM      1  C   UNL     1      36.075  56.283  57.516  0.00  0.00    +0.000 C 
ATOM      2  C   UNL     1      35.450  57.432  57.567  0.00  0.00    +0.000 C 
ENDROOT
BRANCH   2   3
ATOM      3  C   UNL     1      35.212  58.116  56.276  0.00  0.00    +0.000 A 
ATOM      4  C   UNL     1      34.089  58.903  56.070  0.00  0.00    +0.000 A 
ATOM      5  C   UNL     1      33.842  59.548  54.885  0.00  0.00    +0.000 A 
ATOM      6  O   UNL     1      32.704  60.318  54.743  0.00  0.00    +0.000 OA
ATOM      7  C   UNL     1      34.711  59.434  53.848  0.00  0.00    +0.000 A 
ATOM      8  C   UNL     1      35.840  58.647  54.046  0.00  0.00    +0.000 A 
ATOM      9  O   UNL     1      36.708  58.560  52.948  0.00  0.00    +0.000 OA
ATOM     10  C   UNL     1      36.097  57.995  55.231  0.00  0.00    +0.000 A 
ENDBRANCH   2   3
BRANCH   1  14
ATOM     11  C   UNL     1      36.951  53.859  60.896  0.00  0.00    +0.000 A 
ATOM     12  C   UNL     1      37.870  53.974  59.876  0.00  0.00    +0.000 A 
ATOM     13  C   UNL     1      37.591  54.768  58.762  0.00  0.00    +0.000 A 
ATOM     14  C   UNL     1      36.407  55.454  58.643  0.00  0.00    +0.000 A 
ATOM     15  C   UNL     1      35.495  55.332  59.666  0.00  0.00    +0.000 A 
ATOM     16  C   UNL     1      35.769  54.544  60.775  0.00  0.00    +0.000 A 
BRANCH  11  18
ATOM     17  C   UNL     1      36.188  52.268  62.586  0.00  0.00    +0.000 C 
ATOM     18  O   UNL     1      37.195  53.071  62.032  0.00  0.00    +0.000 OA
ENDBRANCH  11  18
ENDBRANCH   1  14
TORSDOF 3
ENDMDL
MODEL 5
REMARK VINA RESULT:      -6.1     12.571     13.643
REMARK  Name = 
REMARK  3 active torsions:
REMARK  status: ('A' for Active; 'I' for Inactive)
REMARK    1  A    between atoms: O_2  and  C_3
REMARK    2  A    between atoms: C_6  and  C_7
REMARK    3  A    between atoms: C_8  and  C_9
REMARK                            x       y       z     vdW  Elec       q    Type
REMARK                         _______ _______ _______ _____ _____    ______ ____
ROOT
ATOM      1  C   UNL     1      36.014  56.208  57.510  0.00  0.00    +0.000 C 
ATOM      2  C   UNL     1      35.604  57.449  57.579  0.00  0.00    +0.000 C 
ENDROOT
BRANCH   2   3
ATOM      3  C   UNL     1      35.294  58.117  56.295  0.00  0.00    +0.000 A 
ATOM      4  C   UNL     1      36.156  58.038  55.211  0.00  0.00    +0.000 A 
ATOM      5  C   UNL     1      35.895  58.646  54.009  0.00  0.00    +0.000 A 
ATOM      6  O   UNL     1      36.795  58.530  52.969  0.00  0.00    +0.000 OA
ATOM      7  C   UNL     1      34.755  59.363  53.837  0.00  0.00    +0.000 A 
ATOM      8  C   UNL     1      33.885  59.446  54.918  0.00  0.00    +0.000 A 
ATOM      9  O   UNL     1      32.722  60.197  54.692  0.00  0.00    +0.000 OA
ATOM     10  C   UNL     1      34.137  58.841  56.128  0.00  0.00    +0.000 A 
ENDBRANCH   2   3
BRANCH   1  14
ATOM     11  C   UNL     1      36.952  53.766  60.861  0.00  0.00    +0.000 A 
ATOM     12  C   UNL     1      37.886  53.954  59.865  0.00  0.00    +0.000 A 
ATOM     13  C   UNL     1      37.586  54.754  58.761  0.00  0.00    +0.000 A 
ATOM     14  C   UNL     1      36.368  55.375  58.628  0.00  0.00    +0.000 A 
ATOM     15  C   UNL     1      35.443  55.181  59.627  0.00  0.00    +0.000 A 
ATOM     16  C   UNL     1      35.736  54.386  60.727  0.00  0.00    +0.000 A 
BRANCH  11  18
ATOM     17  C   UNL     1      36.216  52.171  62.559  0.00  0.00    +0.000 C 
ATOM     18  O   UNL     1      37.215  52.969  61.987  0.00  0.00    +0.000 OA
ENDBRANCH  11  18
ENDBRANCH   1  14
TORSDOF 3
ENDMDL
MODEL 6
REMARK VINA RESULT:      -6.0     12.925     14.501
REMARK  Name = 
REMARK  3 active torsions:
REMARK  status: ('A' for Active; 'I' for Inactive)
REMARK    1  A    between atoms: O_2  and  C_3
REMARK    2  A    between atoms: C_6  and  C_7
REMARK    3  A    between atoms: C_8  and  C_9
REMARK                            x       y       z     vdW  Elec       q    Type
REMARK                         _______ _______ _______ _____ _____    ______ ____
ROOT
ATOM      1  C   UNL     1      36.281  56.405  56.748  0.00  0.00    +0.000 C 
ATOM      2  C   UNL     1      36.220  56.485  58.053  0.00  0.00    +0.000 C 
ENDROOT
BRANCH   2   3
ATOM      3  C   UNL     1      36.366  55.217  58.803  0.00  0.00    +0.000 A 
ATOM      4  C   UNL     1      35.362  54.749  59.636  0.00  0.00    +0.000 A 
ATOM      5  C   UNL     1      35.469  53.579  60.343  0.00  0.00    +0.000 A 
ATOM      6  O   UNL     1      34.432  53.167  61.157  0.00  0.00    +0.000 OA
ATOM      7  C   UNL     1      36.591  52.821  60.248  0.00  0.00    +0.000 A 
ATOM      8  C   UNL     1      37.603  53.282  59.414  0.00  0.00    +0.000 A 
ATOM      9  O   UNL     1      38.742  52.465  59.348  0.00  0.00    +0.000 OA
ATOM     10  C   UNL     1      37.506  54.455  58.701  0.00  0.00    +0.000 A 
ENDBRANCH   2   3
BRANCH   1  14
ATOM     11  C   UNL     1      35.848  59.703  54.101  0.00  0.00    +0.000 A 
ATOM     12  C   UNL     1      36.813  58.751  53.860  0.00  0.00    +0.000 A 
ATOM     13  C   UNL     1      36.963  57.665  54.724  0.00  0.00    +0.000 A 
ATOM     14  C   UNL     1      36.164  57.506  55.830  0.00  0.00    +0.000 A 
ATOM     15  C   UNL     1      35.203  58.462  56.063  0.00  0.00    +0.000 A 
ATOM     16  C   UNL     1      35.050  59.544  55.207  0.00  0.00    +0.000 A 
BRANCH  11  18
ATOM     17  C   UNL     1      35.189  62.031  53.754  0.00  0.00    +0.000 C 
ATOM     18  O   UNL     1      35.665  60.810  53.257  0.00  0.00    +0.000 OA
ENDBRANCH  11  18
ENDBRANCH   1  14
TORSDOF 3
ENDMDL
MODEL 7
REMARK VINA RESULT:      -6.0     12.933     14.582
REMARK  Name = 
REMARK  3 active torsions:
REMARK  status: ('A' for Active; 'I' for Inactive)
REMARK    1  A    between atoms: O_2  and  C_3
REMARK    2  A    between atoms: C_6  and  C_7
REMARK    3  A    between atoms: C_8  and  C_9
REMARK                            x       y       z     vdW  Elec       q    Type
REMARK                         _______ _______ _______ _____ _____    ______ ____
ROOT
ATOM      1  C   UNL     1      36.360  56.267  56.468  0.00  0.00    +0.000 C 
ATOM      2  C   UNL     1      36.214  56.130  57.761  0.00  0.00    +0.000 C 
ENDROOT
BRANCH   2   3
ATOM      3  C   UNL     1      36.537  54.801  58.328  0.00  0.00    +0.000 A 
ATOM      4  C   UNL     1      37.736  54.565  58.983  0.00  0.00    +0.000 A 
ATOM      5  C   UNL     1      38.062  53.344  59.518  0.00  0.00    +0.000 A 
ATOM      6  O   UNL     1      39.273  53.173  60.158  0.00  0.00    +0.000 OA
ATOM      7  C   UNL     1      37.200  52.300  59.419  0.00  0.00    +0.000 A 
ATOM      8  C   UNL     1      35.995  52.528  58.764  0.00  0.00    +0.000 A 
ATOM      9  O   UNL     1      35.137  51.421  58.688  0.00  0.00    +0.000 OA
ATOM     10  C   UNL     1      35.658  53.748  58.224  0.00  0.00    +0.000 A 
ENDBRANCH   2   3
BRANCH   1  14
ATOM     11  C   UNL     1      35.699  59.782  54.170  0.00  0.00    +0.000 A 
ATOM     12  C   UNL     1      34.864  59.483  55.224  0.00  0.00    +0.000 A 
ATOM     13  C   UNL     1      35.073  58.331  55.984  0.00  0.00    +0.000 A 
ATOM     14  C   UNL     1      36.104  57.465  55.714  0.00  0.00    +0.000 A 
ATOM     15  C   UNL     1      36.933  57.772  54.660  0.00  0.00    +0.000 A 
ATOM     16  C   UNL     1      36.729  58.916  53.901  0.00  0.00    +0.000 A 
BRANCH  11  18
ATOM     17  C   UNL     1      35.121  62.146  53.954  0.00  0.00    +0.000 C 
ATOM     18  O   UNL     1      35.522  60.931  53.383  0.00  0.00    +0.000 OA
ENDBRANCH  11  18
ENDBRANCH   1  14
TORSDOF 3
ENDMDL
MODEL 8
REMARK VINA RESULT:      -5.9     14.525     17.338
REMARK  Name = 
REMARK  3 active torsions:
REMARK  status: ('A' for Active; 'I' for Inactive)
REMARK    1  A    between atoms: O_2  and  C_3
REMARK    2  A    between atoms: C_6  and  C_7
REMARK    3  A    between atoms: C_8  and  C_9
REMARK                            x       y       z     vdW  Elec       q    Type
REMARK                         _______ _______ _______ _____ _____    ______ ____
ROOT
ATOM      1  C   UNL     1      31.670  60.004  56.522  0.00  0.00    +0.000 C 
ATOM      2  C   UNL     1      32.439  60.295  55.503  0.00  0.00    +0.000 C 
ENDROOT
BRANCH   2   3
ATOM      3  C   UNL     1      33.679  59.500  55.360  0.00  0.00    +0.000 A 
ATOM      4  C   UNL     1      34.393  59.480  54.171  0.00  0.00    +0.000 A 
ATOM      5  C   UNL     1      35.545  58.753  54.009  0.00  0.00    +0.000 A 
ATOM      6  O   UNL     1      36.210  58.775  52.799  0.00  0.00    +0.000 OA
ATOM      7  C   UNL     1      36.036  58.009  55.033  0.00  0.00    +0.000 A 
ATOM      8  C   UNL     1      35.327  58.024  56.229  0.00  0.00    +0.000 A 
ATOM      9  O   UNL     1      35.872  57.241  57.257  0.00  0.00    +0.000 OA
ATOM     10  C   UNL     1      34.170  58.749  56.402  0.00  0.00    +0.000 A 
ENDBRANCH   2   3
BRANCH   1  14
ATOM     11  C   UNL     1      28.043  62.010  57.466  0.00  0.00    +0.000 A 
ATOM     12  C   UNL     1      28.106  60.636  57.535  0.00  0.00    +0.000 A 
ATOM     13  C   UNL     1      29.293  59.968  57.227  0.00  0.00    +0.000 A 
ATOM     14  C   UNL     1      30.426  60.647  56.849  0.00  0.00    +0.000 A 
ATOM     15  C   UNL     1      30.353  62.019  56.783  0.00  0.00    +0.000 A 
ATOM     16  C   UNL     1      29.175  62.687  57.089  0.00  0.00    +0.000 A 
BRANCH  11  18
ATOM     17  C   UNL     1      25.674  62.047  58.062  0.00  0.00    +0.000 C 
ATOM     18  O   UNL     1      26.869  62.718  57.769  0.00  0.00    +0.000 OA
ENDBRANCH  11  18
ENDBRANCH   1  14
TORSDOF 3
ENDMDL
MODEL 9
REMARK VINA RESULT:      -5.9      3.634      4.681
REMARK  Name = 
REMARK  3 active torsions:
REMARK  status: ('A' for Active; 'I' for Inactive)
REMARK    1  A    between atoms: O_2  and  C_3
REMARK    2  A    between atoms: C_6  and  C_7
REMARK    3  A    between atoms: C_8  and  C_9
REMARK                            x       y       z     vdW  Elec       q    Type
REMARK                         _______ _______ _______ _____ _____    ______ ____
ROOT
ATOM      1  C   UNL     1      28.403  43.724  62.277  0.00  0.00    +0.000 C 
ATOM      2  C   UNL     1      28.906  44.675  63.024  0.00  0.00    +0.000 C 
ENDROOT
BRANCH   2   3
ATOM      3  C   UNL     1      28.289  46.014  62.894  0.00  0.00    +0.000 A 
ATOM      4  C   UNL     1      27.113  46.337  63.555  0.00  0.00    +0.000 A 
ATOM      5  C   UNL     1      26.519  47.569  63.453  0.00  0.00    +0.000 A 
ATOM      6  O   UNL     1      25.348  47.828  64.137  0.00  0.00    +0.000 OA
ATOM      7  C   UNL     1      27.077  48.538  62.683  0.00  0.00    +0.000 A 
ATOM      8  C   UNL     1      28.256  48.223  62.017  0.00  0.00    +0.000 A 
ATOM      9  O   UNL     1      28.794  49.255  61.234  0.00  0.00    +0.000 OA
ATOM     10  C   UNL     1      28.860  46.990  62.111  0.00  0.00    +0.000 A 
ENDBRANCH   2   3
BRANCH   1  14
ATOM     11  C   UNL     1      29.609  39.648  62.224  0.00  0.00    +0.000 A 
ATOM     12  C   UNL     1      30.482  40.628  61.805  0.00  0.00    +0.000 A 
ATOM     13  C   UNL     1      30.095  41.969  61.818  0.00  0.00    +0.000 A 
ATOM     14  C   UNL     1      28.847  42.356  62.245  0.00  0.00    +0.000 A 
ATOM     15  C   UNL     1      27.983  41.370  62.661  0.00  0.00    +0.000 A 
ATOM     16  C   UNL     1      28.364  40.035  62.649  0.00  0.00    +0.000 A 
BRANCH  11  18
ATOM     17  C   UNL     1      30.949  37.795  61.363  0.00  0.00    +0.000 C 
ATOM     18  O   UNL     1      29.961  38.288  62.225  0.00  0.00    +0.000 OA
ENDBRANCH  11  18
ENDBRANCH   1  14
TORSDOF 3
ENDMDL
MODEL 10
REMARK VINA RESULT:      -5.9      3.713      4.458
REMARK  Name = 
REMARK  3 active torsions:
REMARK  status: ('A' for Active; 'I' for Inactive)
REMARK    1  A    between atoms: O_2  and  C_3
REMARK    2  A    between atoms: C_6  and  C_7
REMARK    3  A    between atoms: C_8  and  C_9
REMARK                            x       y       z     vdW  Elec       q    Type
REMARK                         _______ _______ _______ _____ _____    ______ ____
ROOT
ATOM      1  C   UNL     1      28.437  43.734  62.199  0.00  0.00    +0.000 C 
ATOM      2  C   UNL     1      28.882  44.663  63.008  0.00  0.00    +0.000 C 
ENDROOT
BRANCH   2   3
ATOM      3  C   UNL     1      28.237  45.991  62.909  0.00  0.00    +0.000 A 
ATOM      4  C   UNL     1      28.769  46.997  62.115  0.00  0.00    +0.000 A 
ATOM      5  C   UNL     1      28.194  48.237  62.005  0.00  0.00    +0.000 A 
ATOM      6  O   UNL     1      28.772  49.196  61.197  0.00  0.00    +0.000 OA
ATOM      7  C   UNL     1      27.057  48.529  62.686  0.00  0.00    +0.000 A 
ATOM      8  C   UNL     1      26.516  47.526  63.484  0.00  0.00    +0.000 A 
ATOM      9  O   UNL     1      25.343  47.875  64.168  0.00  0.00    +0.000 OA
ATOM     10  C   UNL     1      27.086  46.279  63.603  0.00  0.00    +0.000 A 
ENDBRANCH   2   3
BRANCH   1  14
ATOM     11  C   UNL     1      29.761  39.697  62.046  0.00  0.00    +0.000 A 
ATOM     12  C   UNL     1      30.517  40.690  61.465  0.00  0.00    +0.000 A 
ATOM     13  C   UNL     1      30.091  42.019  61.510  0.00  0.00    +0.000 A 
ATOM     14  C   UNL     1      28.918  42.380  62.127  0.00  0.00    +0.000 A 
ATOM     15  C   UNL     1      28.169  41.381  62.704  0.00  0.00    +0.000 A 
ATOM     16  C   UNL     1      28.589  40.059  62.662  0.00  0.00    +0.000 A 
BRANCH  11  18
ATOM     17  C   UNL     1      29.284  37.332  62.434  0.00  0.00    +0.000 C 
ATOM     18  O   UNL     1      30.155  38.349  62.022  0.00  0.00    +0.000 OA
ENDBRANCH  11  18
ENDBRANCH   1  14
TORSDOF 3
ENDMDL
