REMARK  Name = 
REMARK  3 active torsions:
REMARK  status: ('A' for Active; 'I' for Inactive)
REMARK    1  A    between atoms: O_2  and  C_3
REMARK    2  A    between atoms: C_6  and  C_7
REMARK    3  A    between atoms: C_8  and  C_9
REMARK                            x       y       z     vdW  Elec       q    Type
REMARK                         _______ _______ _______ _____ _____    ______ ____
ROOT
ATOM      1  C   UNL     1       0.162   0.273  -0.271  0.00  0.00    +0.000 C 
ATOM      2  C   UNL     1      -0.541  -0.287   0.681  0.00  0.00    +0.000 C 
ENDROOT
BRANCH   2   3
ATOM      3  C   UNL     1      -2.009  -0.111   0.612  0.00  0.00    +0.000 A 
ATOM      4  C   UNL     1      -2.604   0.612  -0.411  0.00  0.00    +0.000 A 
ATOM      5  C   UNL     1      -3.961   0.792  -0.501  0.00  0.00    +0.000 A 
ATOM      6  O   UNL     1      -4.492   1.523  -1.545  0.00  0.00    +0.000 OA
ATOM      7  C   UNL     1      -4.787   0.255   0.433  0.00  0.00    +0.000 A 
ATOM      8  C   UNL     1      -4.199  -0.472   1.462  0.00  0.00    +0.000 A 
ATOM      9  O   UNL     1      -5.092  -1.007   2.402  0.00  0.00    +0.000 OA
ATOM     10  C   UNL     1      -2.839  -0.658   1.562  0.00  0.00    +0.000 A 
ENDBRANCH   2   3
BRANCH   1  14
ATOM     11  C   UNL     1       4.386   0.206  -0.745  0.00  0.00    +0.000 A 
ATOM     12  C   UNL     1       3.804  -0.441   0.323  0.00  0.00    +0.000 A 
ATOM     13  C   UNL     1       2.418  -0.424   0.487  0.00  0.00    +0.000 A 
ATOM     14  C   UNL     1       1.594   0.228  -0.398  0.00  0.00    +0.000 A 
ATOM     15  C   UNL     1       2.184   0.871  -1.461  0.00  0.00    +0.000 A 
ATOM     16  C   UNL     1       3.562   0.857  -1.628  0.00  0.00    +0.000 A 
BRANCH  11  18
ATOM     17  C   UNL     1       6.638  -0.446  -0.058  0.00  0.00    +0.000 C 
ATOM     18  O   UNL     1       5.776   0.212  -0.945  0.00  0.00    +0.000 OA
ENDBRANCH  11  18
ENDBRANCH   1  14
TORSDOF 3
