REMARK  Name = 
REMARK  7 active torsions:
REMARK  status: ('A' for Active; 'I' for Inactive)
REMARK    1  A    between atoms: O_2  and  C_3
REMARK    2  A    between atoms: C_5  and  C_6
REMARK    3  A    between atoms: C_6  and  C_7
REMARK    4  A    between atoms: C_9  and  C_10
REMARK    5  A    between atoms: C_12  and  O_13
REMARK    6  A    between atoms: C_22  and  O_23
REMARK    7  A    between atoms: C_25  and  O_26
REMARK                            x       y       z     vdW  Elec       q    Type
REMARK                         _______ _______ _______ _____ _____    ______ ____
ROOT
ATOM      1  C   UNL     1       0.226   2.247   0.897  0.00  0.00    +0.000 C 
ATOM      2  C   UNL     1      -1.014   2.038   1.038  0.00  0.00    +0.000 C 
ENDROOT
BRANCH   2   3
ATOM      3  C   UNL     1      -1.730   0.832   0.756  0.00  0.00    +0.000 A 
ATOM      4  C   UNL     1      -2.901   0.921  -0.021  0.00  0.00    +0.000 A 
ATOM      5  C   UNL     1      -3.700  -0.159  -0.312  0.00  0.00    +0.000 A 
ATOM      6  C   UNL     1      -3.366  -1.402   0.166  0.00  0.00    +0.000 A 
ATOM      7  C   UNL     1      -2.230  -1.544   0.931  0.00  0.00    +0.000 A 
ATOM      8  C   UNL     1      -1.436  -0.433   1.212  0.00  0.00    +0.000 A 
ATOM      9  O   UNL     1      -2.152  -2.886   1.264  0.00  0.00    +0.000 OA
ATOM     10  C   UNL     1      -3.114  -3.646   0.565  0.00  0.00    +0.000 C 
ATOM     11  O   UNL     1      -3.976  -2.633   0.029  0.00  0.00    +0.000 OA
BRANCH   5  12
ATOM     12  O   UNL     1      -4.861  -0.028  -1.091  0.00  0.00    +0.000 OA
ATOM     13  C   UNL     1      -5.172   1.266  -1.565  0.00  0.00    +0.000 C 
ENDBRANCH   5  12
ENDBRANCH   2   3
BRANCH   1  16
ATOM     14  C   UNL     1       3.467   0.744  -0.110  0.00  0.00    +0.000 A 
ATOM     15  C   UNL     1       2.514   1.615   0.374  0.00  0.00    +0.000 A 
ATOM     16  C   UNL     1       1.155   1.264   0.404  0.00  0.00    +0.000 A 
ATOM     17  C   UNL     1       0.869   0.026  -0.072  0.00  0.00    +0.000 A 
ATOM     18  C   UNL     1       1.795  -0.864  -0.560  0.00  0.00    +0.000 A 
ATOM     19  C   UNL     1       3.135  -0.508  -0.585  0.00  0.00    +0.000 A 
BRANCH  14  21
ATOM     20  C   UNL     1       5.307   2.323   0.307  0.00  0.00    +0.000 C 
ATOM     21  O   UNL     1       4.811   1.082  -0.143  0.00  0.00    +0.000 OA
ENDBRANCH  14  21
BRANCH  18  22
ATOM     22  O   UNL     1       1.484  -2.125  -1.042  0.00  0.00    +0.000 OA
ATOM     23  C   UNL     1       0.215  -2.693  -1.115  0.00  0.00    +0.000 C 
ENDBRANCH  18  22
BRANCH  19  24
ATOM     24  O   UNL     1       4.106  -1.374  -1.069  0.00  0.00    +0.000 OA
ATOM     25  C   UNL     1       4.781  -2.299  -0.242  0.00  0.00    +0.000 C 
ENDBRANCH  19  24
ENDBRANCH   1  16
BRANCH   1  26
ATOM     26  C   UNL     1       0.704   3.591   1.271  0.00  0.00    +0.000 C 
ATOM     27  N   UNL     1       1.082   4.644   1.554  0.00  0.00    +0.000 NA
ENDBRANCH   1  26
TORSDOF 7
