MODEL 1
REMARK VINA RESULT:      -7.0      0.000      0.000
REMARK  Name = 
REMARK  5 active torsions:
REMARK  status: ('A' for Active; 'I' for Inactive)
REMARK    1  A    between atoms: O_2  and  C_3
REMARK    2  A    between atoms: C_6  and  C_7
REMARK    3  A    between atoms: C_8  and  C_9
REMARK    4  A    between atoms: C_13  and  O_14
REMARK    5  A    between atoms: C_16  and  O_17
REMARK                            x       y       z     vdW  Elec       q    Type
REMARK                         _______ _______ _______ _____ _____    ______ ____
ROOT
ATOM      1  C   UNL     1      36.183  55.521  59.477  0.00  0.00    +0.000 A 
ATOM      2  C   UNL     1      37.533  55.431  59.610  0.00  0.00    +0.000 A 
ATOM      3  C   UNL     1      38.295  54.320  59.323  0.00  0.00    +0.000 A 
ATOM      4  C   UNL     1      37.675  53.178  58.857  0.00  0.00    +0.000 A 
ATOM      5  C   UNL     1      36.311  53.228  58.708  0.00  0.00    +0.000 A 
ATOM      6  C   UNL     1      35.575  54.341  58.999  0.00  0.00    +0.000 A 
ATOM      7  O   UNL     1      38.624  52.164  58.626  0.00  0.00    +0.000 OA
ATOM      8  C   UNL     1      39.886  52.799  58.704  0.00  0.00    +0.000 C 
ATOM      9  O   UNL     1      39.651  54.018  59.385  0.00  0.00    +0.000 OA
ENDROOT
BRANCH   1  11
ATOM     10  C   UNL     1      34.875  57.446  58.932  0.00  0.00    +0.000 C 
ATOM     11  C   UNL     1      35.272  56.576  59.726  0.00  0.00    +0.000 C 
BRANCH  10  15
ATOM     12  C   UNL     1      35.625  58.115  54.825  0.00  0.00    +0.000 A 
ATOM     13  C   UNL     1      36.464  57.260  55.536  0.00  0.00    +0.000 A 
ATOM     14  C   UNL     1      36.275  57.003  56.865  0.00  0.00    +0.000 A 
ATOM     15  C   UNL     1      35.269  57.560  57.559  0.00  0.00    +0.000 A 
ATOM     16  C   UNL     1      34.409  58.433  56.842  0.00  0.00    +0.000 A 
ATOM     17  C   UNL     1      34.590  58.694  55.523  0.00  0.00    +0.000 A 
ATOM     18  O   UNL     1      33.726  59.554  54.855  0.00  0.00    +0.000 OA
BRANCH  12  20
ATOM     19  C   UNL     1      36.897  59.218  53.114  0.00  0.00    +0.000 C 
ATOM     20  O   UNL     1      35.828  58.366  53.482  0.00  0.00    +0.000 OA
ENDBRANCH  12  20
ENDBRANCH  10  15
ENDBRANCH   1  11
BRANCH   5  21
ATOM     21  O   UNL     1      35.683  52.087  58.241  0.00  0.00    +0.000 OA
ATOM     22  C   UNL     1      35.425  51.044  59.173  0.00  0.00    +0.000 C 
ENDBRANCH   5  21
BRANCH   6  23
ATOM     23  O   UNL     1      34.212  54.322  58.826  0.00  0.00    +0.000 OA
ATOM     24  C   UNL     1      33.342  53.926  59.872  0.00  0.00    +0.000 C 
ENDBRANCH   6  23
TORSDOF 5
ENDMDL
MODEL 2
REMARK VINA RESULT:      -6.8      4.167      6.884
REMARK  Name = 
REMARK  5 active torsions:
REMARK  status: ('A' for Active; 'I' for Inactive)
REMARK    1  A    between atoms: O_2  and  C_3
REMARK    2  A    between atoms: C_6  and  C_7
REMARK    3  A    between atoms: C_8  and  C_9
REMARK    4  A    between atoms: C_13  and  O_14
REMARK    5  A    between atoms: C_16  and  O_17
REMARK                            x       y       z     vdW  Elec       q    Type
REMARK                         _______ _______ _______ _____ _____    ______ ____
ROOT
ATOM      1  C   UNL     1      37.506  54.454  59.421  0.00  0.00    +0.000 A 
ATOM      2  C   UNL     1      38.117  53.689  58.478  0.00  0.00    +0.000 A 
ATOM      3  C   UNL     1      39.444  53.319  58.481  0.00  0.00    +0.000 A 
ATOM      4  C   UNL     1      40.260  53.740  59.512  0.00  0.00    +0.000 A 
ATOM      5  C   UNL     1      39.681  54.515  60.485  0.00  0.00    +0.000 A 
ATOM      6  C   UNL     1      38.362  54.870  60.462  0.00  0.00    +0.000 A 
ATOM      7  O   UNL     1      41.570  53.258  59.328  0.00  0.00    +0.000 OA
ATOM      8  C   UNL     1      41.481  52.298  58.294  0.00  0.00    +0.000 C 
ATOM      9  O   UNL     1      40.254  52.563  57.640  0.00  0.00    +0.000 OA
ENDROOT
BRANCH   1  11
ATOM     10  C   UNL     1      35.177  54.265  59.921  0.00  0.00    +0.000 C 
ATOM     11  C   UNL     1      36.173  54.912  59.556  0.00  0.00    +0.000 C 
BRANCH  10  15
ATOM     12  C   UNL     1      35.233  50.350  61.519  0.00  0.00    +0.000 A 
ATOM     13  C   UNL     1      35.088  50.518  60.143  0.00  0.00    +0.000 A 
ATOM     14  C   UNL     1      35.062  51.757  59.566  0.00  0.00    +0.000 A 
ATOM     15  C   UNL     1      35.175  52.880  60.292  0.00  0.00    +0.000 A 
ATOM     16  C   UNL     1      35.323  52.718  61.694  0.00  0.00    +0.000 A 
ATOM     17  C   UNL     1      35.350  51.494  62.276  0.00  0.00    +0.000 A 
ATOM     18  O   UNL     1      35.497  51.376  63.653  0.00  0.00    +0.000 OA
BRANCH  12  20
ATOM     19  C   UNL     1      34.023  48.463  62.375  0.00  0.00    +0.000 C 
ATOM     20  O   UNL     1      35.257  49.093  62.089  0.00  0.00    +0.000 OA
ENDBRANCH  12  20
ENDBRANCH  10  15
ENDBRANCH   1  11
BRANCH   5  21
ATOM     21  O   UNL     1      40.493  54.941  61.522  0.00  0.00    +0.000 OA
ATOM     22  C   UNL     1      40.704  54.048  62.608  0.00  0.00    +0.000 C 
ENDBRANCH   5  21
BRANCH   6  23
ATOM     23  O   UNL     1      37.847  55.649  61.471  0.00  0.00    +0.000 OA
ATOM     24  C   UNL     1      38.041  57.053  61.490  0.00  0.00    +0.000 C 
ENDBRANCH   6  23
TORSDOF 5
ENDMDL
MODEL 3
REMARK VINA RESULT:      -6.8      2.026      6.595
REMARK  Name = 
REMARK  5 active torsions:
REMARK  status: ('A' for Active; 'I' for Inactive)
REMARK    1  A    between atoms: O_2  and  C_3
REMARK    2  A    between atoms: C_6  and  C_7
REMARK    3  A    between atoms: C_8  and  C_9
REMARK    4  A    between atoms: C_13  and  O_14
REMARK    5  A    between atoms: C_16  and  O_17
REMARK                            x       y       z     vdW  Elec       q    Type
REMARK                         _______ _______ _______ _____ _____    ______ ____
ROOT
ATOM      1  C   UNL     1      35.929  58.429  57.927  0.00  0.00    +0.000 A 
ATOM      2  C   UNL     1      36.466  58.188  56.702  0.00  0.00    +0.000 A 
ATOM      3  C   UNL     1      35.838  58.401  55.495  0.00  0.00    +0.000 A 
ATOM      4  C   UNL     1      34.551  58.900  55.482  0.00  0.00    +0.000 A 
ATOM      5  C   UNL     1      33.973  59.157  56.700  0.00  0.00    +0.000 A 
ATOM      6  C   UNL     1      34.614  58.938  57.885  0.00  0.00    +0.000 A 
ATOM      7  O   UNL     1      34.093  59.044  54.159  0.00  0.00    +0.000 OA
ATOM      8  C   UNL     1      35.235  58.874  53.341  0.00  0.00    +0.000 C 
ATOM      9  O   UNL     1      36.192  58.229  54.161  0.00  0.00    +0.000 OA
ENDROOT
BRANCH   1  11
ATOM     10  C   UNL     1      36.527  57.215  59.898  0.00  0.00    +0.000 C 
ATOM     11  C   UNL     1      36.440  58.265  59.237  0.00  0.00    +0.000 C 
BRANCH  10  15
ATOM     12  C   UNL     1      34.873  53.459  58.882  0.00  0.00    +0.000 A 
ATOM     13  C   UNL     1      36.106  53.824  58.344  0.00  0.00    +0.000 A 
ATOM     14  C   UNL     1      36.693  55.024  58.634  0.00  0.00    +0.000 A 
ATOM     15  C   UNL     1      36.115  55.917  59.452  0.00  0.00    +0.000 A 
ATOM     16  C   UNL     1      34.858  55.553  60.004  0.00  0.00    +0.000 A 
ATOM     17  C   UNL     1      34.269  54.365  59.723  0.00  0.00    +0.000 A 
ATOM     18  O   UNL     1      33.038  54.044  60.283  0.00  0.00    +0.000 OA
BRANCH  12  20
ATOM     19  C   UNL     1      34.670  51.112  59.342  0.00  0.00    +0.000 C 
ATOM     20  O   UNL     1      34.291  52.244  58.581  0.00  0.00    +0.000 OA
ENDBRANCH  12  20
ENDBRANCH  10  15
ENDBRANCH   1  11
BRANCH   5  21
ATOM     21  O   UNL     1      32.682  59.658  56.695  0.00  0.00    +0.000 OA
ATOM     22  C   UNL     1      32.505  61.029  56.360  0.00  0.00    +0.000 C 
ENDBRANCH   5  21
BRANCH   6  23
ATOM     23  O   UNL     1      33.975  59.218  59.070  0.00  0.00    +0.000 OA
ATOM     24  C   UNL     1      34.026  60.511  59.647  0.00  0.00    +0.000 C 
ENDBRANCH   6  23
TORSDOF 5
ENDMDL
MODEL 4
REMARK VINA RESULT:      -6.7      1.230      6.402
REMARK  Name = 
REMARK  5 active torsions:
REMARK  status: ('A' for Active; 'I' for Inactive)
REMARK    1  A    between atoms: O_2  and  C_3
REMARK    2  A    between atoms: C_6  and  C_7
REMARK    3  A    between atoms: C_8  and  C_9
REMARK    4  A    between atoms: C_13  and  O_14
REMARK    5  A    between atoms: C_16  and  O_17
REMARK                            x       y       z     vdW  Elec       q    Type
REMARK                         _______ _______ _______ _____ _____    ______ ____
ROOT
ATOM      1  C   UNL     1      34.919  57.765  57.743  0.00  0.00    +0.000 A 
ATOM      2  C   UNL     1      36.012  57.361  57.043  0.00  0.00    +0.000 A 
ATOM      3  C   UNL     1      36.287  57.680  55.732  0.00  0.00    +0.000 A 
ATOM      4  C   UNL     1      35.404  58.476  55.030  0.00  0.00    +0.000 A 
ATOM      5  C   UNL     1      34.288  58.906  55.703  0.00  0.00    +0.000 A 
ATOM      6  C   UNL     1      34.034  58.577  57.004  0.00  0.00    +0.000 A 
ATOM      7  O   UNL     1      35.867  58.682  53.717  0.00  0.00    +0.000 OA
ATOM      8  C   UNL     1      37.201  58.213  53.705  0.00  0.00    +0.000 C 
ATOM      9  O   UNL     1      37.317  57.382  54.845  0.00  0.00    +0.000 OA
ENDROOT
BRANCH   1  11
ATOM     10  C   UNL     1      34.911  56.651  59.858  0.00  0.00    +0.000 C 
ATOM     11  C   UNL     1      34.502  57.525  59.075  0.00  0.00    +0.000 C 
BRANCH  10  15
ATOM     12  C   UNL     1      37.496  53.486  58.771  0.00  0.00    +0.000 A 
ATOM     13  C   UNL     1      38.026  54.604  59.413  0.00  0.00    +0.000 A 
ATOM     14  C   UNL     1      37.243  55.659  59.790  0.00  0.00    +0.000 A 
ATOM     15  C   UNL     1      35.920  55.678  59.562  0.00  0.00    +0.000 A 
ATOM     16  C   UNL     1      35.372  54.543  58.908  0.00  0.00    +0.000 A 
ATOM     17  C   UNL     1      36.140  53.491  58.531  0.00  0.00    +0.000 A 
ATOM     18  O   UNL     1      35.567  52.398  57.894  0.00  0.00    +0.000 OA
BRANCH  12  20
ATOM     19  C   UNL     1      38.768  51.552  59.404  0.00  0.00    +0.000 C 
ATOM     20  O   UNL     1      38.298  52.427  58.396  0.00  0.00    +0.000 OA
ENDBRANCH  12  20
ENDBRANCH  10  15
ENDBRANCH   1  11
BRANCH   5  21
ATOM     21  O   UNL     1      33.398  59.705  55.006  0.00  0.00    +0.000 OA
ATOM     22  C   UNL     1      33.720  61.082  54.857  0.00  0.00    +0.000 C 
ENDBRANCH   5  21
BRANCH   6  23
ATOM     23  O   UNL     1      32.895  59.043  57.616  0.00  0.00    +0.000 OA
ATOM     24  C   UNL     1      32.879  60.289  58.291  0.00  0.00    +0.000 C 
ENDBRANCH   6  23
TORSDOF 5
ENDMDL
MODEL 5
REMARK VINA RESULT:      -6.7      1.342      2.988
REMARK  Name = 
REMARK  5 active torsions:
REMARK  status: ('A' for Active; 'I' for Inactive)
REMARK    1  A    between atoms: O_2  and  C_3
REMARK    2  A    between atoms: C_6  and  C_7
REMARK    3  A    between atoms: C_8  and  C_9
REMARK    4  A    between atoms: C_13  and  O_14
REMARK    5  A    between atoms: C_16  and  O_17
REMARK                            x       y       z     vdW  Elec       q    Type
REMARK                         _______ _______ _______ _____ _____    ______ ____
ROOT
ATOM      1  C   UNL     1      35.447  55.588  59.758  0.00  0.00    +0.000 A 
ATOM      2  C   UNL     1      34.247  54.988  59.540  0.00  0.00    +0.000 A 
ATOM      3  C   UNL     1      34.064  53.702  59.083  0.00  0.00    +0.000 A 
ATOM      4  C   UNL     1      35.168  52.919  58.809  0.00  0.00    +0.000 A 
ATOM      5  C   UNL     1      36.400  53.488  59.017  0.00  0.00    +0.000 A 
ATOM      6  C   UNL     1      36.558  54.766  59.471  0.00  0.00    +0.000 A 
ATOM      7  O   UNL     1      34.768  51.647  58.356  0.00  0.00    +0.000 OA
ATOM      8  C   UNL     1      33.379  51.571  58.615  0.00  0.00    +0.000 C 
ATOM      9  O   UNL     1      32.957  52.910  58.797  0.00  0.00    +0.000 OA
ENDROOT
BRANCH   1  11
ATOM     10  C   UNL     1      35.886  57.929  59.556  0.00  0.00    +0.000 C 
ATOM     11  C   UNL     1      35.793  56.881  60.219  0.00  0.00    +0.000 C 
BRANCH  10  15
ATOM     12  C   UNL     1      34.764  58.546  55.527  0.00  0.00    +0.000 A 
ATOM     13  C   UNL     1      35.921  57.822  55.804  0.00  0.00    +0.000 A 
ATOM     14  C   UNL     1      36.337  57.588  57.085  0.00  0.00    +0.000 A 
ATOM     15  C   UNL     1      35.654  58.043  58.147  0.00  0.00    +0.000 A 
ATOM     16  C   UNL     1      34.474  58.783  57.873  0.00  0.00    +0.000 A 
ATOM     17  C   UNL     1      34.054  59.020  56.606  0.00  0.00    +0.000 A 
ATOM     18  O   UNL     1      32.892  59.749  56.378  0.00  0.00    +0.000 OA
BRANCH  12  20
ATOM     19  C   UNL     1      35.347  58.946  53.233  0.00  0.00    +0.000 C 
ATOM     20  O   UNL     1      34.355  58.776  54.228  0.00  0.00    +0.000 OA
ENDBRANCH  12  20
ENDBRANCH  10  15
ENDBRANCH   1  11
BRANCH   5  21
ATOM     21  O   UNL     1      37.511  52.709  58.744  0.00  0.00    +0.000 OA
ATOM     22  C   UNL     1      37.851  51.690  59.676  0.00  0.00    +0.000 C 
ENDBRANCH   5  21
BRANCH   6  23
ATOM     23  O   UNL     1      37.822  55.274  59.657  0.00  0.00    +0.000 OA
ATOM     24  C   UNL     1      38.524  55.074  60.871  0.00  0.00    +0.000 C 
ENDBRANCH   6  23
TORSDOF 5
ENDMDL
MODEL 6
REMARK VINA RESULT:      -6.5      2.195      6.393
REMARK  Name = 
REMARK  5 active torsions:
REMARK  status: ('A' for Active; 'I' for Inactive)
REMARK    1  A    between atoms: O_2  and  C_3
REMARK    2  A    between atoms: C_6  and  C_7
REMARK    3  A    between atoms: C_8  and  C_9
REMARK    4  A    between atoms: C_13  and  O_14
REMARK    5  A    between atoms: C_16  and  O_17
REMARK                            x       y       z     vdW  Elec       q    Type
REMARK                         _______ _______ _______ _____ _____    ______ ____
ROOT
ATOM      1  C   UNL     1      35.375  57.857  58.210  0.00  0.00    +0.000 A 
ATOM      2  C   UNL     1      35.481  57.405  56.932  0.00  0.00    +0.000 A 
ATOM      3  C   UNL     1      36.199  58.010  55.924  0.00  0.00    +0.000 A 
ATOM      4  C   UNL     1      36.887  59.177  56.191  0.00  0.00    +0.000 A 
ATOM      5  C   UNL     1      36.806  59.666  57.472  0.00  0.00    +0.000 A 
ATOM      6  C   UNL     1      36.087  59.050  58.455  0.00  0.00    +0.000 A 
ATOM      7  O   UNL     1      37.551  59.631  55.036  0.00  0.00    +0.000 OA
ATOM      8  C   UNL     1      37.478  58.563  54.111  0.00  0.00    +0.000 C 
ATOM      9  O   UNL     1      36.436  57.728  54.583  0.00  0.00    +0.000 OA
ENDROOT
BRANCH   1  11
ATOM     10  C   UNL     1      34.938  56.329  59.995  0.00  0.00    +0.000 C 
ATOM     11  C   UNL     1      34.687  57.355  59.341  0.00  0.00    +0.000 C 
BRANCH  10  15
ATOM     12  C   UNL     1      37.738  53.332  58.965  0.00  0.00    +0.000 A 
ATOM     13  C   UNL     1      38.173  54.452  59.670  0.00  0.00    +0.000 A 
ATOM     14  C   UNL     1      37.318  55.455  60.032  0.00  0.00    +0.000 A 
ATOM     15  C   UNL     1      36.011  55.416  59.729  0.00  0.00    +0.000 A 
ATOM     16  C   UNL     1      35.558  54.278  59.010  0.00  0.00    +0.000 A 
ATOM     17  C   UNL     1      36.399  53.279  58.646  0.00  0.00    +0.000 A 
ATOM     18  O   UNL     1      35.919  52.181  57.943  0.00  0.00    +0.000 OA
BRANCH  12  20
ATOM     19  C   UNL     1      39.790  52.681  57.904  0.00  0.00    +0.000 C 
ATOM     20  O   UNL     1      38.612  52.326  58.605  0.00  0.00    +0.000 OA
ENDBRANCH  12  20
ENDBRANCH  10  15
ENDBRANCH   1  11
BRANCH   5  21
ATOM     21  O   UNL     1      37.493  60.836  57.747  0.00  0.00    +0.000 OA
ATOM     22  C   UNL     1      38.907  60.760  57.871  0.00  0.00    +0.000 C 
ENDBRANCH   5  21
BRANCH   6  23
ATOM     23  O   UNL     1      36.050  59.595  59.717  0.00  0.00    +0.000 OA
ATOM     24  C   UNL     1      37.056  59.308  60.673  0.00  0.00    +0.000 C 
ENDBRANCH   6  23
TORSDOF 5
ENDMDL
MODEL 7
REMARK VINA RESULT:      -6.5      3.542      7.794
REMARK  Name = 
REMARK  5 active torsions:
REMARK  status: ('A' for Active; 'I' for Inactive)
REMARK    1  A    between atoms: O_2  and  C_3
REMARK    2  A    between atoms: C_6  and  C_7
REMARK    3  A    between atoms: C_8  and  C_9
REMARK    4  A    between atoms: C_13  and  O_14
REMARK    5  A    between atoms: C_16  and  O_17
REMARK                            x       y       z     vdW  Elec       q    Type
REMARK                         _______ _______ _______ _____ _____    ______ ____
ROOT
ATOM      1  C   UNL     1      36.579  51.797  59.093  0.00  0.00    +0.000 A 
ATOM      2  C   UNL     1      37.833  51.399  59.437  0.00  0.00    +0.000 A 
ATOM      3  C   UNL     1      38.925  52.226  59.579  0.00  0.00    +0.000 A 
ATOM      4  C   UNL     1      38.780  53.582  59.362  0.00  0.00    +0.000 A 
ATOM      5  C   UNL     1      37.528  54.023  59.013  0.00  0.00    +0.000 A 
ATOM      6  C   UNL     1      36.458  53.186  58.878  0.00  0.00    +0.000 A 
ATOM      7  O   UNL     1      40.006  54.244  59.557  0.00  0.00    +0.000 OA
ATOM      8  C   UNL     1      40.859  53.295  60.167  0.00  0.00    +0.000 C 
ATOM      9  O   UNL     1      40.262  52.036  59.914  0.00  0.00    +0.000 OA
ENDROOT
BRANCH   1  11
ATOM     10  C   UNL     1      34.637  50.586  59.783  0.00  0.00    +0.000 C 
ATOM     11  C   UNL     1      35.372  51.080  58.911  0.00  0.00    +0.000 C 
BRANCH  10  15
ATOM     12  C   UNL     1      35.241  50.233  63.953  0.00  0.00    +0.000 A 
ATOM     13  C   UNL     1      35.346  51.488  63.357  0.00  0.00    +0.000 A 
ATOM     14  C   UNL     1      35.162  51.668  62.015  0.00  0.00    +0.000 A 
ATOM     15  C   UNL     1      34.870  50.645  61.196  0.00  0.00    +0.000 A 
ATOM     16  C   UNL     1      34.762  49.362  61.795  0.00  0.00    +0.000 A 
ATOM     17  C   UNL     1      34.943  49.175  63.125  0.00  0.00    +0.000 A 
ATOM     18  O   UNL     1      34.828  47.903  63.675  0.00  0.00    +0.000 OA
BRANCH  12  20
ATOM     19  C   UNL     1      35.215  51.176  66.160  0.00  0.00    +0.000 C 
ATOM     20  O   UNL     1      35.430  50.065  65.311  0.00  0.00    +0.000 OA
ENDBRANCH  12  20
ENDBRANCH  10  15
ENDBRANCH   1  11
BRANCH   5  21
ATOM     21  O   UNL     1      37.374  55.381  58.794  0.00  0.00    +0.000 OA
ATOM     22  C   UNL     1      37.208  56.221  59.930  0.00  0.00    +0.000 C 
ENDBRANCH   5  21
BRANCH   6  23
ATOM     23  O   UNL     1      35.231  53.696  58.525  0.00  0.00    +0.000 OA
ATOM     24  C   UNL     1      34.346  54.225  59.498  0.00  0.00    +0.000 C 
ENDBRANCH   6  23
TORSDOF 5
ENDMDL
MODEL 8
REMARK VINA RESULT:      -6.5      4.207      8.023
REMARK  Name = 
REMARK  5 active torsions:
REMARK  status: ('A' for Active; 'I' for Inactive)
REMARK    1  A    between atoms: O_2  and  C_3
REMARK    2  A    between atoms: C_6  and  C_7
REMARK    3  A    between atoms: C_8  and  C_9
REMARK    4  A    between atoms: C_13  and  O_14
REMARK    5  A    between atoms: C_16  and  O_17
REMARK                            x       y       z     vdW  Elec       q    Type
REMARK                         _______ _______ _______ _____ _____    ______ ____
ROOT
ATOM      1  C   UNL     1      37.296  51.372  59.310  0.00  0.00    +0.000 A 
ATOM      2  C   UNL     1      38.140  50.350  59.612  0.00  0.00    +0.000 A 
ATOM      3  C   UNL     1      39.474  50.478  59.929  0.00  0.00    +0.000 A 
ATOM      4  C   UNL     1      40.045  51.735  59.952  0.00  0.00    +0.000 A 
ATOM      5  C   UNL     1      39.225  52.795  59.653  0.00  0.00    +0.000 A 
ATOM      6  C   UNL     1      37.904  52.644  59.342  0.00  0.00    +0.000 A 
ATOM      7  O   UNL     1      41.408  51.649  60.295  0.00  0.00    +0.000 OA
ATOM      8  C   UNL     1      41.602  50.324  60.750  0.00  0.00    +0.000 C 
ATOM      9  O   UNL     1      40.494  49.592  60.261  0.00  0.00    +0.000 OA
ENDROOT
BRANCH   1  11
ATOM     10  C   UNL     1      34.945  51.243  59.723  0.00  0.00    +0.000 C 
ATOM     11  C   UNL     1      35.922  51.400  58.970  0.00  0.00    +0.000 C 
BRANCH  10  15
ATOM     12  C   UNL     1      35.029  50.002  63.764  0.00  0.00    +0.000 A 
ATOM     13  C   UNL     1      35.294  51.335  63.459  0.00  0.00    +0.000 A 
ATOM     14  C   UNL     1      35.282  51.798  62.174  0.00  0.00    +0.000 A 
ATOM     15  C   UNL     1      35.015  50.994  61.133  0.00  0.00    +0.000 A 
ATOM     16  C   UNL     1      34.744  49.634  61.434  0.00  0.00    +0.000 A 
ATOM     17  C   UNL     1      34.753  49.165  62.706  0.00  0.00    +0.000 A 
ATOM     18  O   UNL     1      34.482  47.826  62.962  0.00  0.00    +0.000 OA
BRANCH  12  20
ATOM     19  C   UNL     1      36.065  50.015  65.929  0.00  0.00    +0.000 C 
ATOM     20  O   UNL     1      35.044  49.547  65.068  0.00  0.00    +0.000 OA
ENDBRANCH  12  20
ENDBRANCH  10  15
ENDBRANCH   1  11
BRANCH   5  21
ATOM     21  O   UNL     1      39.790  54.058  59.675  0.00  0.00    +0.000 OA
ATOM     22  C   UNL     1      40.047  54.648  60.943  0.00  0.00    +0.000 C 
ENDBRANCH   5  21
BRANCH   6  23
ATOM     23  O   UNL     1      37.141  53.750  59.052  0.00  0.00    +0.000 OA
ATOM     24  C   UNL     1      36.573  54.543  60.080  0.00  0.00    +0.000 C 
ENDBRANCH   6  23
TORSDOF 5
ENDMDL
MODEL 9
REMARK VINA RESULT:      -6.4      2.371      6.529
REMARK  Name = 
REMARK  5 active torsions:
REMARK  status: ('A' for Active; 'I' for Inactive)
REMARK    1  A    between atoms: O_2  and  C_3
REMARK    2  A    between atoms: C_6  and  C_7
REMARK    3  A    between atoms: C_8  and  C_9
REMARK    4  A    between atoms: C_13  and  O_14
REMARK    5  A    between atoms: C_16  and  O_17
REMARK                            x       y       z     vdW  Elec       q    Type
REMARK                         _______ _______ _______ _____ _____    ______ ____
ROOT
ATOM      1  C   UNL     1      35.820  56.268  58.522  0.00  0.00    +0.000 A 
ATOM      2  C   UNL     1      36.048  56.056  57.199  0.00  0.00    +0.000 A 
ATOM      3  C   UNL     1      36.431  57.016  56.288  0.00  0.00    +0.000 A 
ATOM      4  C   UNL     1      36.609  58.318  56.712  0.00  0.00    +0.000 A 
ATOM      5  C   UNL     1      36.389  58.572  58.043  0.00  0.00    +0.000 A 
ATOM      6  C   UNL     1      36.010  57.606  58.929  0.00  0.00    +0.000 A 
ATOM      7  O   UNL     1      36.996  59.136  55.634  0.00  0.00    +0.000 OA
ATOM      8  C   UNL     1      37.318  58.250  54.579  0.00  0.00    +0.000 C 
ATOM      9  O   UNL     1      36.710  57.019  54.925  0.00  0.00    +0.000 OA
ENDROOT
BRANCH   1  11
ATOM     10  C   UNL     1      36.097  54.497  60.104  0.00  0.00    +0.000 C 
ATOM     11  C   UNL     1      35.429  55.399  59.570  0.00  0.00    +0.000 C 
BRANCH  10  15
ATOM     12  C   UNL     1      40.212  53.716  59.521  0.00  0.00    +0.000 A 
ATOM     13  C   UNL     1      39.292  53.226  58.597  0.00  0.00    +0.000 A 
ATOM     14  C   UNL     1      37.949  53.444  58.728  0.00  0.00    +0.000 A 
ATOM     15  C   UNL     1      37.442  54.143  59.756  0.00  0.00    +0.000 A 
ATOM     16  C   UNL     1      38.372  54.645  60.704  0.00  0.00    +0.000 A 
ATOM     17  C   UNL     1      39.706  54.434  60.581  0.00  0.00    +0.000 A 
ATOM     18  O   UNL     1      40.586  54.942  61.529  0.00  0.00    +0.000 OA
BRANCH  12  20
ATOM     19  C   UNL     1      41.990  52.590  58.367  0.00  0.00    +0.000 C 
ATOM     20  O   UNL     1      41.566  53.487  59.376  0.00  0.00    +0.000 OA
ENDBRANCH  12  20
ENDBRANCH  10  15
ENDBRANCH   1  11
BRANCH   5  21
ATOM     21  O   UNL     1      36.566  59.875  58.475  0.00  0.00    +0.000 OA
ATOM     22  C   UNL     1      37.890  60.393  58.495  0.00  0.00    +0.000 C 
ENDBRANCH   5  21
BRANCH   6  23
ATOM     23  O   UNL     1      35.806  57.931  60.249  0.00  0.00    +0.000 OA
ATOM     24  C   UNL     1      36.890  58.046  61.155  0.00  0.00    +0.000 C 
ENDBRANCH   6  23
TORSDOF 5
ENDMDL
MODEL 10
REMARK VINA RESULT:      -6.4     11.798     14.985
REMARK  Name = 
REMARK  5 active torsions:
REMARK  status: ('A' for Active; 'I' for Inactive)
REMARK    1  A    between atoms: O_2  and  C_3
REMARK    2  A    between atoms: C_6  and  C_7
REMARK    3  A    between atoms: C_8  and  C_9
REMARK    4  A    between atoms: C_13  and  O_14
REMARK    5  A    between atoms: C_16  and  O_17
REMARK                            x       y       z     vdW  Elec       q    Type
REMARK                         _______ _______ _______ _____ _____    ______ ____
ROOT
ATOM      1  C   UNL     1      28.292  42.306  60.517  0.00  0.00    +0.000 A 
ATOM      2  C   UNL     1      27.015  42.544  60.116  0.00  0.00    +0.000 A 
ATOM      3  C   UNL     1      26.583  42.604  58.809  0.00  0.00    +0.000 A 
ATOM      4  C   UNL     1      27.491  42.410  57.787  0.00  0.00    +0.000 A 
ATOM      5  C   UNL     1      28.792  42.166  58.152  0.00  0.00    +0.000 A 
ATOM      6  C   UNL     1      29.199  42.112  59.454  0.00  0.00    +0.000 A 
ATOM      7  O   UNL     1      26.852  42.511  56.537  0.00  0.00    +0.000 OA
ATOM      8  C   UNL     1      25.465  42.503  56.817  0.00  0.00    +0.000 C 
ATOM      9  O   UNL     1      25.357  42.829  58.190  0.00  0.00    +0.000 OA
ENDROOT
BRANCH   1  11
ATOM     10  C   UNL     1      29.047  43.124  62.632  0.00  0.00    +0.000 C 
ATOM     11  C   UNL     1      28.883  42.215  61.800  0.00  0.00    +0.000 C 
BRANCH  10  15
ATOM     12  C   UNL     1      28.420  47.275  62.127  0.00  0.00    +0.000 A 
ATOM     13  C   UNL     1      27.318  46.423  62.157  0.00  0.00    +0.000 A 
ATOM     14  C   UNL     1      27.455  45.072  62.318  0.00  0.00    +0.000 A 
ATOM     15  C   UNL     1      28.658  44.492  62.455  0.00  0.00    +0.000 A 
ATOM     16  C   UNL     1      29.786  45.354  62.425  0.00  0.00    +0.000 A 
ATOM     17  C   UNL     1      29.660  46.694  62.266  0.00  0.00    +0.000 A 
ATOM     18  O   UNL     1      30.788  47.506  62.243  0.00  0.00    +0.000 OA
BRANCH  12  20
ATOM     19  C   UNL     1      27.162  49.105  61.215  0.00  0.00    +0.000 C 
ATOM     20  O   UNL     1      28.268  48.638  61.965  0.00  0.00    +0.000 OA
ENDBRANCH  12  20
ENDBRANCH  10  15
ENDBRANCH   1  11
BRANCH   5  21
ATOM     21  O   UNL     1      29.708  41.971  57.132  0.00  0.00    +0.000 OA
ATOM     22  C   UNL     1      30.145  43.113  56.406  0.00  0.00    +0.000 C 
ENDBRANCH   5  21
BRANCH   6  23
ATOM     23  O   UNL     1      30.519  41.863  59.747  0.00  0.00    +0.000 OA
ATOM     24  C   UNL     1      31.470  42.911  59.811  0.00  0.00    +0.000 C 
ENDBRANCH   6  23
TORSDOF 5
ENDMDL
