REMARK  Name = 
REMARK  6 active torsions:
REMARK  status: ('A' for Active; 'I' for Inactive)
REMARK    1  A    between atoms: O_2  and  C_3
REMARK    2  A    between atoms: C_5  and  C_6
REMARK    3  A    between atoms: C_7  and  C_8
REMARK    4  A    between atoms: C_11  and  O_12
REMARK    5  A    between atoms: C_14  and  O_15
REMARK    6  A    between atoms: C_19  and  O_20
REMARK                            x       y       z     vdW  Elec       q    Type
REMARK                         _______ _______ _______ _____ _____    ______ ____
ROOT
ATOM      1  C   UNL     1      -0.454  -0.097   0.561  0.00  0.00    +0.000 C 
ATOM      2  C   UNL     1       0.190   0.126  -0.550  0.00  0.00    +0.000 C 
ENDROOT
BRANCH   1   5
ATOM      3  C   UNL     1      -4.029   0.074  -0.496  0.00  0.00    +0.000 A 
ATOM      4  C   UNL     1      -2.650   0.081  -0.461  0.00  0.00    +0.000 A 
ATOM      5  C   UNL     1      -1.906  -0.134   0.677  0.00  0.00    +0.000 A 
ATOM      6  C   UNL     1      -2.559  -0.371   1.857  0.00  0.00    +0.000 A 
ATOM      7  C   UNL     1      -3.959  -0.386   1.866  0.00  0.00    +0.000 A 
ATOM      8  C   UNL     1      -4.666  -0.166   0.703  0.00  0.00    +0.000 A 
BRANCH   3  10
ATOM      9  C   UNL     1      -4.000   0.535  -2.858  0.00  0.00    +0.000 C 
ATOM     10  O   UNL     1      -4.748   0.298  -1.680  0.00  0.00    +0.000 OA
ENDBRANCH   3  10
BRANCH   7  11
ATOM     11  O   UNL     1      -4.654  -0.622   3.040  0.00  0.00    +0.000 OA
ATOM     12  C   UNL     1      -6.059  -0.632   3.021  0.00  0.00    +0.000 C 
ENDBRANCH   7  11
ENDBRANCH   1   5
BRANCH   2  13
ATOM     13  C   UNL     1       1.667   0.155  -0.623  0.00  0.00    +0.000 A 
ATOM     14  C   UNL     1       2.267   0.398  -1.841  0.00  0.00    +0.000 A 
ATOM     15  C   UNL     1       3.636   0.441  -1.990  0.00  0.00    +0.000 A 
ATOM     16  C   UNL     1       4.450   0.236  -0.899  0.00  0.00    +0.000 A 
ATOM     17  C   UNL     1       3.849  -0.007   0.315  0.00  0.00    +0.000 A 
ATOM     18  C   UNL     1       2.466  -0.050   0.464  0.00  0.00    +0.000 A 
BRANCH  16  19
ATOM     19  O   UNL     1       5.853   0.274  -1.023  0.00  0.00    +0.000 OA
ATOM     20  C   UNL     1       6.465   0.520  -2.257  0.00  0.00    +0.000 C 
ENDBRANCH  16  19
BRANCH  17  21
ATOM     21  O   UNL     1       4.705  -0.211   1.403  0.00  0.00    +0.000 OA
ATOM     22  C   UNL     1       4.136  -0.463   2.664  0.00  0.00    +0.000 C 
ENDBRANCH  17  21
ENDBRANCH   2  13
TORSDOF 6
