REMARK  Name = 
REMARK  6 active torsions:
REMARK  status: ('A' for Active; 'I' for Inactive)
REMARK    1  A    between atoms: O_2  and  C_3
REMARK    2  A    between atoms: C_6  and  C_7
REMARK    3  A    between atoms: C_8  and  C_9
REMARK    4  A    between atoms: C_11  and  O_12
REMARK    5  A    between atoms: C_14  and  O_15
REMARK    6  A    between atoms: C_17  and  O_18
REMARK                            x       y       z     vdW  Elec       q    Type
REMARK                         _______ _______ _______ _____ _____    ______ ____
ROOT
ATOM      1  C   UNL     1      -1.214   0.344  -1.243  0.00  0.00    +0.000 A 
ATOM      2  C   UNL     1      -0.734  -0.517  -0.314  0.00  0.00    +0.000 A 
ATOM      3  C   UNL     1      -1.573  -1.113   0.587  0.00  0.00    +0.000 A 
ATOM      4  C   UNL     1      -2.943  -0.838   0.562  0.00  0.00    +0.000 A 
ATOM      5  C   UNL     1      -3.417   0.023  -0.368  0.00  0.00    +0.000 A 
ATOM      6  C   UNL     1      -2.608   0.624  -1.271  0.00  0.00    +0.000 A 
ENDROOT
BRANCH   1   8
ATOM      7  C   UNL     1       0.668   1.334  -2.331  0.00  0.00    +0.000 C 
ATOM      8  C   UNL     1      -0.529   1.107  -2.248  0.00  0.00    +0.000 C 
BRANCH   7  12
ATOM      9  C   UNL     1       3.989   0.390   0.159  0.00  0.00    +0.000 A 
ATOM     10  C   UNL     1       4.117   0.873  -1.118  0.00  0.00    +0.000 A 
ATOM     11  C   UNL     1       3.052   1.145  -1.925  0.00  0.00    +0.000 A 
ATOM     12  C   UNL     1       1.731   0.943  -1.486  0.00  0.00    +0.000 A 
ATOM     13  C   UNL     1       1.625   0.464  -0.218  0.00  0.00    +0.000 A 
ATOM     14  C   UNL     1       2.689   0.181   0.620  0.00  0.00    +0.000 A 
ATOM     15  N   UNL     1       2.549  -0.291   1.933  0.00  0.00    +0.000 NA
BRANCH   9  17
ATOM     16  C   UNL     1       6.412   0.310   0.558  0.00  0.00    +0.000 C 
ATOM     17  O   UNL     1       5.082   0.118   0.967  0.00  0.00    +0.000 OA
ENDBRANCH   9  17
ENDBRANCH   7  12
ENDBRANCH   1   8
BRANCH   3  18
ATOM     18  O   UNL     1      -1.154  -2.010   1.560  0.00  0.00    +0.000 OA
ATOM     19  C   UNL     1       0.176  -2.417   1.717  0.00  0.00    +0.000 C 
ENDBRANCH   3  18
BRANCH   4  20
ATOM     20  O   UNL     1      -3.808  -1.447   1.486  0.00  0.00    +0.000 OA
ATOM     21  C   UNL     1      -4.061  -0.803   2.731  0.00  0.00    +0.000 C 
ENDBRANCH   4  20
BRANCH   5  22
ATOM     22  O   UNL     1      -4.791   0.341  -0.442  0.00  0.00    +0.000 OA
ATOM     23  C   UNL     1      -5.260   1.241  -1.418  0.00  0.00    +0.000 C 
ENDBRANCH   5  22
TORSDOF 6
