REMARK  Name = 
REMARK  5 active torsions:
REMARK  status: ('A' for Active; 'I' for Inactive)
REMARK    1  A    between atoms: O_2  and  C_3
REMARK    2  A    between atoms: C_6  and  C_7
REMARK    3  A    between atoms: C_8  and  C_9
REMARK    4  A    between atoms: C_13  and  O_14
REMARK    5  A    between atoms: C_16  and  O_17
REMARK                            x       y       z     vdW  Elec       q    Type
REMARK                         _______ _______ _______ _____ _____    ______ ____
ROOT
ATOM      1  C   UNL     1      -1.076  -0.771   0.399  0.00  0.00    +0.000 A 
ATOM      2  C   UNL     1      -0.574   0.334  -0.213  0.00  0.00    +0.000 A 
ATOM      3  C   UNL     1      -1.310   1.276  -0.897  0.00  0.00    +0.000 A 
ATOM      4  C   UNL     1      -2.679   1.124  -0.994  0.00  0.00    +0.000 A 
ATOM      5  C   UNL     1      -3.225   0.020  -0.388  0.00  0.00    +0.000 A 
ATOM      6  C   UNL     1      -2.476  -0.902   0.285  0.00  0.00    +0.000 A 
ATOM      7  O   UNL     1      -3.240   2.186  -1.728  0.00  0.00    +0.000 OA
ATOM      8  C   UNL     1      -2.210   3.148  -1.853  0.00  0.00    +0.000 C 
ATOM      9  O   UNL     1      -1.009   2.450  -1.580  0.00  0.00    +0.000 OA
ENDROOT
BRANCH   1  11
ATOM     10  C   UNL     1       0.749  -1.958   1.386  0.00  0.00    +0.000 C 
ATOM     11  C   UNL     1      -0.459  -1.815   1.130  0.00  0.00    +0.000 C 
BRANCH  10  15
ATOM     12  C   UNL     1       4.170   0.341   0.443  0.00  0.00    +0.000 A 
ATOM     13  C   UNL     1       2.921   0.773   0.002  0.00  0.00    +0.000 A 
ATOM     14  C   UNL     1       1.778   0.075   0.274  0.00  0.00    +0.000 A 
ATOM     15  C   UNL     1       1.795  -1.066   0.981  0.00  0.00    +0.000 A 
ATOM     16  C   UNL     1       3.064  -1.514   1.434  0.00  0.00    +0.000 A 
ATOM     17  C   UNL     1       4.203  -0.828   1.169  0.00  0.00    +0.000 A 
ATOM     18  O   UNL     1       5.427  -1.298   1.630  0.00  0.00    +0.000 OA
BRANCH  12  20
ATOM     19  C   UNL     1       5.196   2.248  -0.592  0.00  0.00    +0.000 C 
ATOM     20  O   UNL     1       5.317   1.056   0.161  0.00  0.00    +0.000 OA
ENDBRANCH  12  20
ENDBRANCH  10  15
ENDBRANCH   1  11
BRANCH   5  21
ATOM     21  O   UNL     1      -4.597  -0.139  -0.481  0.00  0.00    +0.000 OA
ATOM     22  C   UNL     1      -5.402   0.442   0.537  0.00  0.00    +0.000 C 
ENDBRANCH   5  21
BRANCH   6  23
ATOM     23  O   UNL     1      -3.089  -1.985   0.869  0.00  0.00    +0.000 OA
ATOM     24  C   UNL     1      -3.276  -3.197   0.159  0.00  0.00    +0.000 C 
ENDBRANCH   6  23
TORSDOF 5
