REMARK  Name = 
REMARK  4 active torsions:
REMARK  status: ('A' for Active; 'I' for Inactive)
REMARK    1  A    between atoms: O_2  and  C_3
REMARK    2  A    between atoms: C_6  and  C_7
REMARK    3  A    between atoms: C_8  and  C_9
REMARK    4  A    between atoms: C_11  and  O_12
REMARK                            x       y       z     vdW  Elec       q    Type
REMARK                         _______ _______ _______ _____ _____    ______ ____
ROOT
ATOM      1  C   UNL     1      -0.810  -0.626   0.054  0.00  0.00    +0.000 C 
ATOM      2  C   UNL     1       0.074   0.326   0.118  0.00  0.00    +0.000 C 
ENDROOT
BRANCH   2   3
ATOM      3  C   UNL     1       1.513   0.143   0.123  0.00  0.00    +0.000 A 
ATOM      4  C   UNL     1       2.289   1.296   0.197  0.00  0.00    +0.000 A 
ATOM      5  C   UNL     1       3.659   1.204   0.206  0.00  0.00    +0.000 A 
ATOM      6  C   UNL     1       4.245  -0.034   0.141  0.00  0.00    +0.000 A 
ATOM      7  C   UNL     1       3.494  -1.200   0.066  0.00  0.00    +0.000 A 
ATOM      8  C   UNL     1       2.125  -1.081   0.059  0.00  0.00    +0.000 A 
ATOM      9  O   UNL     1       4.377  -2.297   0.012  0.00  0.00    +0.000 OA
ATOM     10  C   UNL     1       5.668  -1.754  -0.168  0.00  0.00    +0.000 C 
ATOM     11  O   UNL     1       5.576  -0.391   0.135  0.00  0.00    +0.000 OA
BRANCH   5  12
ATOM     12  O   UNL     1       4.418   2.354   0.281  0.00  0.00    +0.000 OA
ATOM     13  C   UNL     1       3.891   3.644   0.349  0.00  0.00    +0.000 C 
ENDBRANCH   5  12
ENDBRANCH   2   3
BRANCH   1  17
ATOM     14  C   UNL     1      -5.003   0.046   0.049  0.00  0.00    +0.000 A 
ATOM     15  C   UNL     1      -4.151   1.110   0.119  0.00  0.00    +0.000 A 
ATOM     16  C   UNL     1      -2.786   0.881   0.120  0.00  0.00    +0.000 A 
ATOM     17  C   UNL     1      -2.260  -0.391   0.052  0.00  0.00    +0.000 A 
ATOM     18  C   UNL     1      -3.137  -1.450  -0.018  0.00  0.00    +0.000 A 
ATOM     19  C   UNL     1      -4.513  -1.238  -0.020  0.00  0.00    +0.000 A 
ATOM     20  N   UNL     1      -5.391  -2.354  -0.094  0.00  0.00    +0.000 NA
BRANCH  14  22
ATOM     21  C   UNL     1      -6.918   1.558   0.116  0.00  0.00    +0.000 C 
ATOM     22  O   UNL     1      -6.360   0.254   0.046  0.00  0.00    +0.000 OA
ENDBRANCH  14  22
ENDBRANCH   1  17
TORSDOF 4
