REMARK  Name = 
REMARK  4 active torsions:
REMARK  status: ('A' for Active; 'I' for Inactive)
REMARK    1  A    between atoms: O_2  and  C_3
REMARK    2  A    between atoms: C_5  and  C_6
REMARK    3  A    between atoms: C_7  and  C_8
REMARK    4  A    between atoms: C_16  and  O_17
REMARK                            x       y       z     vdW  Elec       q    Type
REMARK                         _______ _______ _______ _____ _____    ______ ____
ROOT
ATOM      1  C   UNL     1      -3.214   0.309  -0.792  0.00  0.00    +0.000 A 
ATOM      2  C   UNL     1      -1.837   0.342  -0.730  0.00  0.00    +0.000 A 
ATOM      3  C   UNL     1      -1.128  -0.117   0.359  0.00  0.00    +0.000 A 
ATOM      4  C   UNL     1      -1.871  -0.627   1.416  0.00  0.00    +0.000 A 
ATOM      5  C   UNL     1      -3.250  -0.675   1.385  0.00  0.00    +0.000 A 
ATOM      6  C   UNL     1      -3.929  -0.201   0.267  0.00  0.00    +0.000 A 
ENDROOT
BRANCH   1   8
ATOM      7  C   UNL     1      -3.182   1.294  -2.971  0.00  0.00    +0.000 C 
ATOM      8  O   UNL     1      -3.925   0.773  -1.889  0.00  0.00    +0.000 OA
ENDBRANCH   1   8
BRANCH   3   9
ATOM      9  C   UNL     1       0.320  -0.089   0.439  0.00  0.00    +0.000 C 
ATOM     10  C   UNL     1       1.041   0.384  -0.537  0.00  0.00    +0.000 C 
BRANCH  10  11
ATOM     11  C   UNL     1       2.510   0.397  -0.422  0.00  0.00    +0.000 A 
ATOM     12  C   UNL     1       3.146  -0.082   0.704  0.00  0.00    +0.000 A 
ATOM     13  C   UNL     1       4.522  -0.064   0.798  0.00  0.00    +0.000 A 
ATOM     14  C   UNL     1       5.321   0.428  -0.213  0.00  0.00    +0.000 A 
ATOM     15  O   UNL     1       6.717   0.443  -0.108  0.00  0.00    +0.000 OA
ATOM     16  C   UNL     1       4.675   0.906  -1.335  0.00  0.00    +0.000 A 
ATOM     17  C   UNL     1       3.300   0.892  -1.439  0.00  0.00    +0.000 A 
ENDBRANCH  10  11
ENDBRANCH   3   9
BRANCH   5  18
ATOM     18  O   UNL     1      -3.910  -1.202   2.488  0.00  0.00    +0.000 OA
ATOM     19  C   UNL     1      -5.307  -1.305   2.579  0.00  0.00    +0.000 C 
ENDBRANCH   5  18
TORSDOF 4
