MODEL 1
REMARK VINA RESULT:      -6.1      0.000      0.000
REMARK  Name = 
REMARK  4 active torsions:
REMARK  status: ('A' for Active; 'I' for Inactive)
REMARK    1  A    between atoms: O_2  and  C_3
REMARK    2  A    between atoms: C_5  and  C_6
REMARK    3  A    between atoms: C_7  and  C_8
REMARK    4  A    between atoms: C_16  and  O_17
REMARK                            x       y       z     vdW  Elec       q    Type
REMARK                         _______ _______ _______ _____ _____    ______ ____
ROOT
ATOM      1  C   UNL     1      35.908  53.431  60.897  0.00  0.00    +0.000 A 
ATOM      2  C   UNL     1      35.619  54.147  59.755  0.00  0.00    +0.000 A 
ATOM      3  C   UNL     1      36.590  54.760  58.993  0.00  0.00    +0.000 A 
ATOM      4  C   UNL     1      37.902  54.624  59.429  0.00  0.00    +0.000 A 
ATOM      5  C   UNL     1      38.224  53.914  60.567  0.00  0.00    +0.000 A 
ATOM      6  C   UNL     1      37.215  53.310  61.309  0.00  0.00    +0.000 A 
ENDROOT
BRANCH   1   8
ATOM      7  C   UNL     1      35.330  51.751  62.498  0.00  0.00    +0.000 C 
ATOM      8  O   UNL     1      34.928  52.816  61.662  0.00  0.00    +0.000 OA
ENDBRANCH   1   8
BRANCH   3   9
ATOM      9  C   UNL     1      36.301  55.517  57.789  0.00  0.00    +0.000 C 
ATOM     10  C   UNL     1      36.050  56.794  57.838  0.00  0.00    +0.000 C 
BRANCH  10  11
ATOM     11  C   UNL     1      35.761  57.531  56.596  0.00  0.00    +0.000 A 
ATOM     12  C   UNL     1      36.503  57.327  55.451  0.00  0.00    +0.000 A 
ATOM     13  C   UNL     1      36.221  58.025  54.295  0.00  0.00    +0.000 A 
ATOM     14  C   UNL     1      35.200  58.949  54.225  0.00  0.00    +0.000 A 
ATOM     15  O   UNL     1      34.922  59.652  53.047  0.00  0.00    +0.000 OA
ATOM     16  C   UNL     1      34.464  59.146  55.376  0.00  0.00    +0.000 A 
ATOM     17  C   UNL     1      34.737  58.454  56.537  0.00  0.00    +0.000 A 
ENDBRANCH  10  11
ENDBRANCH   3   9
BRANCH   5  18
ATOM     18  O   UNL     1      39.564  53.831  60.927  0.00  0.00    +0.000 OA
ATOM     19  C   UNL     1      40.610  53.712  59.999  0.00  0.00    +0.000 C 
ENDBRANCH   5  18
TORSDOF 4
ENDMDL
MODEL 2
REMARK VINA RESULT:      -5.9      0.671      2.825
REMARK  Name = 
REMARK  4 active torsions:
REMARK  status: ('A' for Active; 'I' for Inactive)
REMARK    1  A    between atoms: O_2  and  C_3
REMARK    2  A    between atoms: C_5  and  C_6
REMARK    3  A    between atoms: C_7  and  C_8
REMARK    4  A    between atoms: C_16  and  O_17
REMARK                            x       y       z     vdW  Elec       q    Type
REMARK                         _______ _______ _______ _____ _____    ______ ____
ROOT
ATOM      1  C   UNL     1      38.159  53.301  60.214  0.00  0.00    +0.000 A 
ATOM      2  C   UNL     1      37.692  54.280  59.363  0.00  0.00    +0.000 A 
ATOM      3  C   UNL     1      36.385  54.714  59.372  0.00  0.00    +0.000 A 
ATOM      4  C   UNL     1      35.535  54.115  60.293  0.00  0.00    +0.000 A 
ATOM      5  C   UNL     1      35.971  53.133  61.159  0.00  0.00    +0.000 A 
ATOM      6  C   UNL     1      37.300  52.721  61.119  0.00  0.00    +0.000 A 
ENDROOT
BRANCH   1   8
ATOM      7  C   UNL     1      40.486  53.850  60.155  0.00  0.00    +0.000 C 
ATOM      8  O   UNL     1      39.476  52.865  60.202  0.00  0.00    +0.000 OA
ENDBRANCH   1   8
BRANCH   3   9
ATOM      9  C   UNL     1      35.879  55.743  58.483  0.00  0.00    +0.000 C 
ATOM     10  C   UNL     1      36.499  56.046  57.378  0.00  0.00    +0.000 C 
BRANCH  10  11
ATOM     11  C   UNL     1      35.956  57.096  56.499  0.00  0.00    +0.000 A 
ATOM     12  C   UNL     1      36.360  57.211  55.185  0.00  0.00    +0.000 A 
ATOM     13  C   UNL     1      35.843  58.200  54.373  0.00  0.00    +0.000 A 
ATOM     14  C   UNL     1      34.912  59.111  54.826  0.00  0.00    +0.000 A 
ATOM     15  O   UNL     1      34.395  60.111  53.995  0.00  0.00    +0.000 OA
ATOM     16  C   UNL     1      34.516  58.988  56.143  0.00  0.00    +0.000 A 
ATOM     17  C   UNL     1      35.026  58.003  56.962  0.00  0.00    +0.000 A 
ENDBRANCH  10  11
ENDBRANCH   3   9
BRANCH   5  18
ATOM     18  O   UNL     1      35.051  52.590  62.047  0.00  0.00    +0.000 OA
ATOM     19  C   UNL     1      35.387  51.645  63.029  0.00  0.00    +0.000 C 
ENDBRANCH   5  18
TORSDOF 4
ENDMDL
MODEL 3
REMARK VINA RESULT:      -5.9     12.260     13.493
REMARK  Name = 
REMARK  4 active torsions:
REMARK  status: ('A' for Active; 'I' for Inactive)
REMARK    1  A    between atoms: O_2  and  C_3
REMARK    2  A    between atoms: C_5  and  C_6
REMARK    3  A    between atoms: C_7  and  C_8
REMARK    4  A    between atoms: C_16  and  O_17
REMARK                            x       y       z     vdW  Elec       q    Type
REMARK                         _______ _______ _______ _____ _____    ______ ____
ROOT
ATOM      1  C   UNL     1      34.047  44.604  61.916  0.00  0.00    +0.000 A 
ATOM      2  C   UNL     1      32.984  45.362  62.360  0.00  0.00    +0.000 A 
ATOM      3  C   UNL     1      31.698  45.187  61.897  0.00  0.00    +0.000 A 
ATOM      4  C   UNL     1      31.509  44.194  60.944  0.00  0.00    +0.000 A 
ATOM      5  C   UNL     1      32.552  43.417  60.480  0.00  0.00    +0.000 A 
ATOM      6  C   UNL     1      33.836  43.626  60.972  0.00  0.00    +0.000 A 
ENDROOT
BRANCH   1   8
ATOM      7  C   UNL     1      35.972  43.675  62.990  0.00  0.00    +0.000 C 
ATOM      8  O   UNL     1      35.341  44.784  62.383  0.00  0.00    +0.000 OA
ENDBRANCH   1   8
BRANCH   3   9
ATOM      9  C   UNL     1      30.570  45.976  62.353  0.00  0.00    +0.000 C 
ATOM     10  C   UNL     1      29.401  45.434  62.544  0.00  0.00    +0.000 C 
BRANCH  10  11
ATOM     11  C   UNL     1      28.276  46.266  63.009  0.00  0.00    +0.000 A 
ATOM     12  C   UNL     1      27.720  47.236  62.202  0.00  0.00    +0.000 A 
ATOM     13  C   UNL     1      26.667  48.007  62.650  0.00  0.00    +0.000 A 
ATOM     14  C   UNL     1      26.126  47.851  63.909  0.00  0.00    +0.000 A 
ATOM     15  O   UNL     1      25.059  48.639  64.356  0.00  0.00    +0.000 OA
ATOM     16  C   UNL     1      26.691  46.879  64.710  0.00  0.00    +0.000 A 
ATOM     17  C   UNL     1      27.743  46.102  64.271  0.00  0.00    +0.000 A 
ENDBRANCH  10  11
ENDBRANCH   3   9
BRANCH   5  18
ATOM     18  O   UNL     1      32.269  42.447  59.526  0.00  0.00    +0.000 OA
ATOM     19  C   UNL     1      33.039  42.250  58.369  0.00  0.00    +0.000 C 
ENDBRANCH   5  18
TORSDOF 4
ENDMDL
MODEL 4
REMARK VINA RESULT:      -5.9      1.688      8.123
REMARK  Name = 
REMARK  4 active torsions:
REMARK  status: ('A' for Active; 'I' for Inactive)
REMARK    1  A    between atoms: O_2  and  C_3
REMARK    2  A    between atoms: C_5  and  C_6
REMARK    3  A    between atoms: C_7  and  C_8
REMARK    4  A    between atoms: C_16  and  O_17
REMARK                            x       y       z     vdW  Elec       q    Type
REMARK                         _______ _______ _______ _____ _____    ______ ____
ROOT
ATOM      1  C   UNL     1      35.033  58.915  54.335  0.00  0.00    +0.000 A 
ATOM      2  C   UNL     1      35.434  58.121  55.389  0.00  0.00    +0.000 A 
ATOM      3  C   UNL     1      34.840  58.175  56.632  0.00  0.00    +0.000 A 
ATOM      4  C   UNL     1      33.798  59.080  56.786  0.00  0.00    +0.000 A 
ATOM      5  C   UNL     1      33.372  59.888  55.751  0.00  0.00    +0.000 A 
ATOM      6  C   UNL     1      33.998  59.804  54.511  0.00  0.00    +0.000 A 
ENDROOT
BRANCH   1   8
ATOM      7  C   UNL     1      37.028  59.069  53.026  0.00  0.00    +0.000 C 
ATOM      8  O   UNL     1      35.633  58.860  53.086  0.00  0.00    +0.000 OA
ENDBRANCH   1   8
BRANCH   3   9
ATOM      9  C   UNL     1      35.251  57.346  57.749  0.00  0.00    +0.000 C 
ATOM     10  C   UNL     1      36.024  56.313  57.575  0.00  0.00    +0.000 C 
BRANCH  10  11
ATOM     11  C   UNL     1      36.421  55.493  58.733  0.00  0.00    +0.000 A 
ATOM     12  C   UNL     1      37.600  54.778  58.736  0.00  0.00    +0.000 A 
ATOM     13  C   UNL     1      37.960  54.014  59.827  0.00  0.00    +0.000 A 
ATOM     14  C   UNL     1      37.170  53.927  60.954  0.00  0.00    +0.000 A 
ATOM     15  O   UNL     1      37.543  53.148  62.057  0.00  0.00    +0.000 OA
ATOM     16  C   UNL     1      35.992  54.645  60.942  0.00  0.00    +0.000 A 
ATOM     17  C   UNL     1      35.624  55.412  59.856  0.00  0.00    +0.000 A 
ENDBRANCH  10  11
ENDBRANCH   3   9
BRANCH   5  18
ATOM     18  O   UNL     1      32.322  60.764  55.997  0.00  0.00    +0.000 OA
ATOM     19  C   UNL     1      30.980  60.464  55.715  0.00  0.00    +0.000 C 
ENDBRANCH   5  18
TORSDOF 4
ENDMDL
MODEL 5
REMARK VINA RESULT:      -5.9      1.561      3.139
REMARK  Name = 
REMARK  4 active torsions:
REMARK  status: ('A' for Active; 'I' for Inactive)
REMARK    1  A    between atoms: O_2  and  C_3
REMARK    2  A    between atoms: C_5  and  C_6
REMARK    3  A    between atoms: C_7  and  C_8
REMARK    4  A    between atoms: C_16  and  O_17
REMARK                            x       y       z     vdW  Elec       q    Type
REMARK                         _______ _______ _______ _____ _____    ______ ____
ROOT
ATOM      1  C   UNL     1      38.621  53.686  59.586  0.00  0.00    +0.000 A 
ATOM      2  C   UNL     1      37.925  54.744  59.041  0.00  0.00    +0.000 A 
ATOM      3  C   UNL     1      36.644  54.618  58.546  0.00  0.00    +0.000 A 
ATOM      4  C   UNL     1      36.069  53.357  58.621  0.00  0.00    +0.000 A 
ATOM      5  C   UNL     1      36.738  52.277  59.161  0.00  0.00    +0.000 A 
ATOM      6  C   UNL     1      38.030  52.445  59.649  0.00  0.00    +0.000 A 
ENDROOT
BRANCH   1   8
ATOM      7  C   UNL     1      40.959  53.260  59.315  0.00  0.00    +0.000 C 
ATOM      8  O   UNL     1      39.910  53.815  60.082  0.00  0.00    +0.000 OA
ENDBRANCH   1   8
BRANCH   3   9
ATOM      9  C   UNL     1      35.899  55.721  57.970  0.00  0.00    +0.000 C 
ATOM     10  C   UNL     1      36.377  56.412  56.975  0.00  0.00    +0.000 C 
BRANCH  10  11
ATOM     11  C   UNL     1      35.593  57.526  56.414  0.00  0.00    +0.000 A 
ATOM     12  C   UNL     1      35.804  57.977  55.128  0.00  0.00    +0.000 A 
ATOM     13  C   UNL     1      35.062  59.021  54.615  0.00  0.00    +0.000 A 
ATOM     14  C   UNL     1      34.087  59.660  55.352  0.00  0.00    +0.000 A 
ATOM     15  O   UNL     1      33.339  60.719  54.824  0.00  0.00    +0.000 OA
ATOM     16  C   UNL     1      33.884  59.203  56.639  0.00  0.00    +0.000 A 
ATOM     17  C   UNL     1      34.620  58.159  57.160  0.00  0.00    +0.000 A 
ENDBRANCH  10  11
ENDBRANCH   3   9
BRANCH   5  18
ATOM     18  O   UNL     1      36.084  51.053  59.194  0.00  0.00    +0.000 OA
ATOM     19  C   UNL     1      34.716  50.912  59.479  0.00  0.00    +0.000 C 
ENDBRANCH   5  18
TORSDOF 4
ENDMDL
MODEL 6
REMARK VINA RESULT:      -5.8      1.495      1.912
REMARK  Name = 
REMARK  4 active torsions:
REMARK  status: ('A' for Active; 'I' for Inactive)
REMARK    1  A    between atoms: O_2  and  C_3
REMARK    2  A    between atoms: C_5  and  C_6
REMARK    3  A    between atoms: C_7  and  C_8
REMARK    4  A    between atoms: C_16  and  O_17
REMARK                            x       y       z     vdW  Elec       q    Type
REMARK                         _______ _______ _______ _____ _____    ______ ____
ROOT
ATOM      1  C   UNL     1      36.180  52.764  58.984  0.00  0.00    +0.000 A 
ATOM      2  C   UNL     1      35.884  53.873  58.221  0.00  0.00    +0.000 A 
ATOM      3  C   UNL     1      36.456  55.107  58.444  0.00  0.00    +0.000 A 
ATOM      4  C   UNL     1      37.365  55.191  59.491  0.00  0.00    +0.000 A 
ATOM      5  C   UNL     1      37.684  54.100  60.274  0.00  0.00    +0.000 A 
ATOM      6  C   UNL     1      37.083  52.871  60.016  0.00  0.00    +0.000 A 
ENDROOT
BRANCH   1   8
ATOM      7  C   UNL     1      34.834  50.965  59.804  0.00  0.00    +0.000 C 
ATOM      8  O   UNL     1      35.601  51.524  58.758  0.00  0.00    +0.000 OA
ENDBRANCH   1   8
BRANCH   3   9
ATOM      9  C   UNL     1      36.155  56.283  57.650  0.00  0.00    +0.000 C 
ATOM     10  C   UNL     1      36.445  56.333  56.382  0.00  0.00    +0.000 C 
BRANCH  10  11
ATOM     11  C   UNL     1      36.125  57.544  55.605  0.00  0.00    +0.000 A 
ATOM     12  C   UNL     1      35.087  58.376  55.969  0.00  0.00    +0.000 A 
ATOM     13  C   UNL     1      34.799  59.506  55.233  0.00  0.00    +0.000 A 
ATOM     14  C   UNL     1      35.521  59.857  54.111  0.00  0.00    +0.000 A 
ATOM     15  O   UNL     1      35.220  61.006  53.370  0.00  0.00    +0.000 OA
ATOM     16  C   UNL     1      36.557  59.017  53.755  0.00  0.00    +0.000 A 
ATOM     17  C   UNL     1      36.854  57.885  54.485  0.00  0.00    +0.000 A 
ENDBRANCH  10  11
ENDBRANCH   3   9
BRANCH   5  18
ATOM     18  O   UNL     1      38.603  54.278  61.299  0.00  0.00    +0.000 OA
ATOM     19  C   UNL     1      39.199  55.513  61.600  0.00  0.00    +0.000 C 
ENDBRANCH   5  18
TORSDOF 4
ENDMDL
MODEL 7
REMARK VINA RESULT:      -5.8      2.510      7.435
REMARK  Name = 
REMARK  4 active torsions:
REMARK  status: ('A' for Active; 'I' for Inactive)
REMARK    1  A    between atoms: O_2  and  C_3
REMARK    2  A    between atoms: C_5  and  C_6
REMARK    3  A    between atoms: C_7  and  C_8
REMARK    4  A    between atoms: C_16  and  O_17
REMARK                            x       y       z     vdW  Elec       q    Type
REMARK                         _______ _______ _______ _____ _____    ______ ____
ROOT
ATOM      1  C   UNL     1      36.597  59.092  57.408  0.00  0.00    +0.000 A 
ATOM      2  C   UNL     1      36.427  57.827  57.929  0.00  0.00    +0.000 A 
ATOM      3  C   UNL     1      36.306  56.704  57.139  0.00  0.00    +0.000 A 
ATOM      4  C   UNL     1      36.364  56.900  55.765  0.00  0.00    +0.000 A 
ATOM      5  C   UNL     1      36.534  58.153  55.211  0.00  0.00    +0.000 A 
ATOM      6  C   UNL     1      36.651  59.261  56.043  0.00  0.00    +0.000 A 
ENDROOT
BRANCH   1   8
ATOM      7  C   UNL     1      38.007  60.546  58.678  0.00  0.00    +0.000 C 
ATOM      8  O   UNL     1      36.717  60.220  58.205  0.00  0.00    +0.000 OA
ENDBRANCH   1   8
BRANCH   3   9
ATOM      9  C   UNL     1      36.127  55.367  57.673  0.00  0.00    +0.000 C 
ATOM     10  C   UNL     1      35.540  55.171  58.819  0.00  0.00    +0.000 C 
BRANCH  10  11
ATOM     11  C   UNL     1      35.375  53.799  59.331  0.00  0.00    +0.000 A 
ATOM     12  C   UNL     1      35.457  52.706  58.494  0.00  0.00    +0.000 A 
ATOM     13  C   UNL     1      35.301  51.427  58.988  0.00  0.00    +0.000 A 
ATOM     14  C   UNL     1      35.056  51.179  60.322  0.00  0.00    +0.000 A 
ATOM     15  O   UNL     1      34.898  49.878  60.813  0.00  0.00    +0.000 OA
ATOM     16  C   UNL     1      34.974  52.280  61.151  0.00  0.00    +0.000 A 
ATOM     17  C   UNL     1      35.129  53.562  60.668  0.00  0.00    +0.000 A 
ENDBRANCH  10  11
ENDBRANCH   3   9
BRANCH   5  18
ATOM     18  O   UNL     1      36.580  58.253  53.827  0.00  0.00    +0.000 OA
ATOM     19  C   UNL     1      35.555  58.826  53.057  0.00  0.00    +0.000 C 
ENDBRANCH   5  18
TORSDOF 4
ENDMDL
MODEL 8
REMARK VINA RESULT:      -5.7      2.080      2.376
REMARK  Name = 
REMARK  4 active torsions:
REMARK  status: ('A' for Active; 'I' for Inactive)
REMARK    1  A    between atoms: O_2  and  C_3
REMARK    2  A    between atoms: C_5  and  C_6
REMARK    3  A    between atoms: C_7  and  C_8
REMARK    4  A    between atoms: C_16  and  O_17
REMARK                            x       y       z     vdW  Elec       q    Type
REMARK                         _______ _______ _______ _____ _____    ______ ____
ROOT
ATOM      1  C   UNL     1      36.987  50.890  59.966  0.00  0.00    +0.000 A 
ATOM      2  C   UNL     1      36.283  51.981  59.502  0.00  0.00    +0.000 A 
ATOM      3  C   UNL     1      36.892  53.064  58.905  0.00  0.00    +0.000 A 
ATOM      4  C   UNL     1      38.275  53.012  58.785  0.00  0.00    +0.000 A 
ATOM      5  C   UNL     1      39.009  51.935  59.239  0.00  0.00    +0.000 A 
ATOM      6  C   UNL     1      38.356  50.861  59.836  0.00  0.00    +0.000 A 
ENDROOT
BRANCH   1   8
ATOM      7  C   UNL     1      35.038  49.971  61.003  0.00  0.00    +0.000 C 
ATOM      8  O   UNL     1      36.371  49.803  60.567  0.00  0.00    +0.000 OA
ENDBRANCH   1   8
BRANCH   3   9
ATOM      9  C   UNL     1      36.165  54.218  58.412  0.00  0.00    +0.000 C 
ATOM     10  C   UNL     1      36.788  55.302  58.046  0.00  0.00    +0.000 C 
BRANCH  10  11
ATOM     11  C   UNL     1      36.018  56.456  57.550  0.00  0.00    +0.000 A 
ATOM     12  C   UNL     1      36.252  56.992  56.301  0.00  0.00    +0.000 A 
ATOM     13  C   UNL     1      35.523  58.072  55.849  0.00  0.00    +0.000 A 
ATOM     14  C   UNL     1      34.538  58.665  56.612  0.00  0.00    +0.000 A 
ATOM     15  O   UNL     1      33.804  59.762  56.145  0.00  0.00    +0.000 OA
ATOM     16  C   UNL     1      34.312  58.122  57.860  0.00  0.00    +0.000 A 
ATOM     17  C   UNL     1      35.035  57.042  58.321  0.00  0.00    +0.000 A 
ENDBRANCH  10  11
ENDBRANCH   3   9
BRANCH   5  18
ATOM     18  O   UNL     1      40.388  51.970  59.077  0.00  0.00    +0.000 OA
ATOM     19  C   UNL     1      41.023  52.511  57.948  0.00  0.00    +0.000 C 
ENDBRANCH   5  18
TORSDOF 4
ENDMDL
MODEL 9
REMARK VINA RESULT:      -5.7      5.210      8.081
REMARK  Name = 
REMARK  4 active torsions:
REMARK  status: ('A' for Active; 'I' for Inactive)
REMARK    1  A    between atoms: O_2  and  C_3
REMARK    2  A    between atoms: C_5  and  C_6
REMARK    3  A    between atoms: C_7  and  C_8
REMARK    4  A    between atoms: C_16  and  O_17
REMARK                            x       y       z     vdW  Elec       q    Type
REMARK                         _______ _______ _______ _____ _____    ______ ____
ROOT
ATOM      1  C   UNL     1      34.905  51.104  59.466  0.00  0.00    +0.000 A 
ATOM      2  C   UNL     1      36.219  51.371  59.144  0.00  0.00    +0.000 A 
ATOM      3  C   UNL     1      37.281  50.788  59.800  0.00  0.00    +0.000 A 
ATOM      4  C   UNL     1      36.970  49.899  60.821  0.00  0.00    +0.000 A 
ATOM      5  C   UNL     1      35.666  49.609  61.167  0.00  0.00    +0.000 A 
ATOM      6  C   UNL     1      34.621  50.219  60.480  0.00  0.00    +0.000 A 
ENDROOT
BRANCH   1   8
ATOM      7  C   UNL     1      33.668  53.087  58.959  0.00  0.00    +0.000 C 
ATOM      8  O   UNL     1      33.838  51.693  58.804  0.00  0.00    +0.000 OA
ENDBRANCH   1   8
BRANCH   3   9
ATOM      9  C   UNL     1      38.668  51.059  59.474  0.00  0.00    +0.000 C 
ATOM     10  C   UNL     1      39.639  50.532  60.163  0.00  0.00    +0.000 C 
BRANCH  10  11
ATOM     11  C   UNL     1      41.037  50.830  59.803  0.00  0.00    +0.000 A 
ATOM     12  C   UNL     1      42.086  50.125  60.356  0.00  0.00    +0.000 A 
ATOM     13  C   UNL     1      43.390  50.414  60.010  0.00  0.00    +0.000 A 
ATOM     14  C   UNL     1      43.707  51.408  59.108  0.00  0.00    +0.000 A 
ATOM     15  O   UNL     1      45.034  51.694  58.764  0.00  0.00    +0.000 OA
ATOM     16  C   UNL     1      42.651  52.107  58.561  0.00  0.00    +0.000 A 
ATOM     17  C   UNL     1      41.344  51.826  58.900  0.00  0.00    +0.000 A 
ENDBRANCH  10  11
ENDBRANCH   3   9
BRANCH   5  18
ATOM     18  O   UNL     1      35.450  48.707  62.201  0.00  0.00    +0.000 OA
ATOM     19  C   UNL     1      34.174  48.285  62.608  0.00  0.00    +0.000 C 
ENDBRANCH   5  18
TORSDOF 4
ENDMDL
MODEL 10
REMARK VINA RESULT:      -5.7      4.821      8.087
REMARK  Name = 
REMARK  4 active torsions:
REMARK  status: ('A' for Active; 'I' for Inactive)
REMARK    1  A    between atoms: O_2  and  C_3
REMARK    2  A    between atoms: C_5  and  C_6
REMARK    3  A    between atoms: C_7  and  C_8
REMARK    4  A    between atoms: C_16  and  O_17
REMARK                            x       y       z     vdW  Elec       q    Type
REMARK                         _______ _______ _______ _____ _____    ______ ____
ROOT
ATOM      1  C   UNL     1      34.957  58.903  54.405  0.00  0.00    +0.000 A 
ATOM      2  C   UNL     1      33.812  59.631  54.649  0.00  0.00    +0.000 A 
ATOM      3  C   UNL     1      33.197  59.663  55.882  0.00  0.00    +0.000 A 
ATOM      4  C   UNL     1      33.789  58.918  56.893  0.00  0.00    +0.000 A 
ATOM      5  C   UNL     1      34.936  58.179  56.682  0.00  0.00    +0.000 A 
ATOM      6  C   UNL     1      35.526  58.172  55.423  0.00  0.00    +0.000 A 
ENDROOT
BRANCH   1   8
ATOM      7  C   UNL     1      36.949  59.189  53.112  0.00  0.00    +0.000 C 
ATOM      8  O   UNL     1      35.573  58.872  53.163  0.00  0.00    +0.000 OA
ENDBRANCH   1   8
BRANCH   3   9
ATOM      9  C   UNL     1      31.992  60.424  56.154  0.00  0.00    +0.000 C 
ATOM     10  C   UNL     1      30.997  59.900  56.812  0.00  0.00    +0.000 C 
BRANCH  10  11
ATOM     11  C   UNL     1      29.788  60.702  57.070  0.00  0.00    +0.000 A 
ATOM     12  C   UNL     1      28.623  60.119  57.521  0.00  0.00    +0.000 A 
ATOM     13  C   UNL     1      27.499  60.881  57.759  0.00  0.00    +0.000 A 
ATOM     14  C   UNL     1      27.481  62.246  57.561  0.00  0.00    +0.000 A 
ATOM     15  O   UNL     1      26.335  63.012  57.804  0.00  0.00    +0.000 OA
ATOM     16  C   UNL     1      28.652  62.821  57.108  0.00  0.00    +0.000 A 
ATOM     17  C   UNL     1      29.782  62.067  56.868  0.00  0.00    +0.000 A 
ENDBRANCH  10  11
ENDBRANCH   3   9
BRANCH   5  18
ATOM     18  O   UNL     1      35.458  57.464  57.752  0.00  0.00    +0.000 OA
ATOM     19  C   UNL     1      34.686  57.016  58.836  0.00  0.00    +0.000 C 
ENDBRANCH   5  18
TORSDOF 4
ENDMDL
