MODEL 1
REMARK VINA RESULT:      -6.3      0.000      0.000
REMARK  Name = 
REMARK  5 active torsions:
REMARK  status: ('A' for Active; 'I' for Inactive)
REMARK    1  A    between atoms: O_2  and  C_3
REMARK    2  A    between atoms: C_5  and  C_6
REMARK    3  A    between atoms: C_7  and  C_9
REMARK    4  A    between atoms: C_19  and  O_20
REMARK    5  A    between atoms: C_22  and  O_23
REMARK                            x       y       z     vdW  Elec       q    Type
REMARK                         _______ _______ _______ _____ _____    ______ ____
ROOT
ATOM      1  C   UNL     1      38.367  54.475  59.660  0.00  0.00    +0.000 A 
ATOM      2  C   UNL     1      37.557  55.498  60.046  0.00  0.00    +0.000 A 
ATOM      3  C   UNL     1      36.211  55.597  59.813  0.00  0.00    +0.000 A 
ATOM      4  C   UNL     1      35.682  54.501  59.099  0.00  0.00    +0.000 A 
ATOM      5  C   UNL     1      36.455  53.448  58.687  0.00  0.00    +0.000 A 
ATOM      6  C   UNL     1      37.807  53.427  58.965  0.00  0.00    +0.000 A 
ENDROOT
BRANCH   3   7
ATOM      7  C   UNL     1      35.295  56.610  60.170  0.00  0.00    +0.000 C 
ATOM      8  C   UNL     1      35.023  57.682  59.529  0.00  0.00    +0.000 C 
ATOM      9  C   UNL     1      33.978  58.604  60.150  0.00  0.00    +0.000 C 
BRANCH   8  10
ATOM     10  C   UNL     1      35.663  58.075  58.322  0.00  0.00    +0.000 A 
ATOM     11  C   UNL     1      36.622  59.090  58.373  0.00  0.00    +0.000 A 
ATOM     12  C   UNL     1      37.305  59.517  57.272  0.00  0.00    +0.000 A 
ATOM     13  C   UNL     1      37.073  58.954  56.039  0.00  0.00    +0.000 A 
ATOM     14  C   UNL     1      36.133  57.949  55.959  0.00  0.00    +0.000 A 
ATOM     15  C   UNL     1      35.462  57.542  57.091  0.00  0.00    +0.000 A 
ATOM     16  O   UNL     1      36.091  57.559  54.633  0.00  0.00    +0.000 OA
ATOM     17  C   UNL     1      36.773  58.508  53.832  0.00  0.00    +0.000 C 
ATOM     18  O   UNL     1      37.597  59.166  54.764  0.00  0.00    +0.000 OA
ENDBRANCH   8  10
ENDBRANCH   3   7
BRANCH   1  20
ATOM     19  C   UNL     1      40.231  54.288  61.250  0.00  0.00    +0.000 C 
ATOM     20  O   UNL     1      39.736  54.454  59.941  0.00  0.00    +0.000 OA
ENDBRANCH   1  20
BRANCH   5  21
ATOM     21  O   UNL     1      35.936  52.364  57.984  0.00  0.00    +0.000 OA
ATOM     22  C   UNL     1      35.177  51.424  58.702  0.00  0.00    +0.000 C 
ENDBRANCH   5  21
BRANCH   6  23
ATOM     23  O   UNL     1      38.596  52.381  58.561  0.00  0.00    +0.000 OA
ATOM     24  C   UNL     1      38.878  51.237  59.344  0.00  0.00    +0.000 C 
ENDBRANCH   6  23
TORSDOF 5
ENDMDL
MODEL 2
REMARK VINA RESULT:      -6.2      1.184      2.939
REMARK  Name = 
REMARK  5 active torsions:
REMARK  status: ('A' for Active; 'I' for Inactive)
REMARK    1  A    between atoms: O_2  and  C_3
REMARK    2  A    between atoms: C_5  and  C_6
REMARK    3  A    between atoms: C_7  and  C_9
REMARK    4  A    between atoms: C_19  and  O_20
REMARK    5  A    between atoms: C_22  and  O_23
REMARK                            x       y       z     vdW  Elec       q    Type
REMARK                         _______ _______ _______ _____ _____    ______ ____
ROOT
ATOM      1  C   UNL     1      35.365  53.895  58.901  0.00  0.00    +0.000 A 
ATOM      2  C   UNL     1      34.909  55.113  59.299  0.00  0.00    +0.000 A 
ATOM      3  C   UNL     1      35.672  56.151  59.764  0.00  0.00    +0.000 A 
ATOM      4  C   UNL     1      37.051  55.859  59.808  0.00  0.00    +0.000 A 
ATOM      5  C   UNL     1      37.561  54.648  59.420  0.00  0.00    +0.000 A 
ATOM      6  C   UNL     1      36.719  53.654  58.962  0.00  0.00    +0.000 A 
ENDROOT
BRANCH   3   7
ATOM      7  C   UNL     1      35.293  57.440  60.198  0.00  0.00    +0.000 C 
ATOM      8  C   UNL     1      35.087  58.479  59.482  0.00  0.00    +0.000 C 
ATOM      9  C   UNL     1      34.679  59.749  60.221  0.00  0.00    +0.000 C 
BRANCH   8  10
ATOM     10  C   UNL     1      35.262  58.524  58.071  0.00  0.00    +0.000 A 
ATOM     11  C   UNL     1      34.128  58.490  57.256  0.00  0.00    +0.000 A 
ATOM     12  C   UNL     1      34.197  58.554  55.895  0.00  0.00    +0.000 A 
ATOM     13  C   UNL     1      35.410  58.655  55.255  0.00  0.00    +0.000 A 
ATOM     14  C   UNL     1      36.545  58.691  56.036  0.00  0.00    +0.000 A 
ATOM     15  C   UNL     1      36.441  58.625  57.408  0.00  0.00    +0.000 A 
ATOM     16  O   UNL     1      37.613  58.794  55.164  0.00  0.00    +0.000 OA
ATOM     17  C   UNL     1      37.183  58.522  53.842  0.00  0.00    +0.000 C 
ATOM     18  O   UNL     1      35.794  58.738  53.918  0.00  0.00    +0.000 OA
ENDBRANCH   8  10
ENDBRANCH   3   7
BRANCH   1  20
ATOM     19  C   UNL     1      33.141  52.860  58.757  0.00  0.00    +0.000 C 
ATOM     20  O   UNL     1      34.513  52.888  58.437  0.00  0.00    +0.000 OA
ENDBRANCH   1  20
BRANCH   5  21
ATOM     21  O   UNL     1      38.922  54.356  59.461  0.00  0.00    +0.000 OA
ATOM     22  C   UNL     1      39.554  54.372  60.717  0.00  0.00    +0.000 C 
ENDBRANCH   5  21
BRANCH   6  23
ATOM     23  O   UNL     1      37.211  52.437  58.568  0.00  0.00    +0.000 OA
ATOM     24  C   UNL     1      37.384  51.324  59.424  0.00  0.00    +0.000 C 
ENDBRANCH   6  23
TORSDOF 5
ENDMDL
MODEL 3
REMARK VINA RESULT:      -6.2      1.865      6.602
REMARK  Name = 
REMARK  5 active torsions:
REMARK  status: ('A' for Active; 'I' for Inactive)
REMARK    1  A    between atoms: O_2  and  C_3
REMARK    2  A    between atoms: C_5  and  C_6
REMARK    3  A    between atoms: C_7  and  C_9
REMARK    4  A    between atoms: C_19  and  O_20
REMARK    5  A    between atoms: C_22  and  O_23
REMARK                            x       y       z     vdW  Elec       q    Type
REMARK                         _______ _______ _______ _____ _____    ______ ____
ROOT
ATOM      1  C   UNL     1      35.685  58.137  55.915  0.00  0.00    +0.000 A 
ATOM      2  C   UNL     1      36.448  57.867  57.008  0.00  0.00    +0.000 A 
ATOM      3  C   UNL     1      36.140  58.173  58.307  0.00  0.00    +0.000 A 
ATOM      4  C   UNL     1      34.900  58.829  58.450  0.00  0.00    +0.000 A 
ATOM      5  C   UNL     1      34.095  59.125  57.382  0.00  0.00    +0.000 A 
ATOM      6  C   UNL     1      34.482  58.780  56.103  0.00  0.00    +0.000 A 
ENDROOT
BRANCH   3   7
ATOM      7  C   UNL     1      36.863  57.936  59.497  0.00  0.00    +0.000 C 
ATOM      8  C   UNL     1      36.927  56.852  60.171  0.00  0.00    +0.000 C 
ATOM      9  C   UNL     1      37.796  56.879  61.425  0.00  0.00    +0.000 C 
BRANCH   8  10
ATOM     10  C   UNL     1      36.211  55.667  59.849  0.00  0.00    +0.000 A 
ATOM     11  C   UNL     1      34.893  55.541  60.293  0.00  0.00    +0.000 A 
ATOM     12  C   UNL     1      34.121  54.452  60.012  0.00  0.00    +0.000 A 
ATOM     13  C   UNL     1      34.618  53.410  59.265  0.00  0.00    +0.000 A 
ATOM     14  C   UNL     1      35.917  53.508  58.814  0.00  0.00    +0.000 A 
ATOM     15  C   UNL     1      36.669  54.622  59.115  0.00  0.00    +0.000 A 
ATOM     16  O   UNL     1      36.169  52.351  58.100  0.00  0.00    +0.000 OA
ATOM     17  C   UNL     1      35.149  51.400  58.351  0.00  0.00    +0.000 C 
ATOM     18  O   UNL     1      34.091  52.198  58.822  0.00  0.00    +0.000 OA
ENDBRANCH   8  10
ENDBRANCH   3   7
BRANCH   1  20
ATOM     19  C   UNL     1      37.097  58.477  53.932  0.00  0.00    +0.000 C 
ATOM     20  O   UNL     1      36.077  57.789  54.619  0.00  0.00    +0.000 OA
ENDBRANCH   1  20
BRANCH   5  21
ATOM     21  O   UNL     1      32.870  59.772  57.521  0.00  0.00    +0.000 OA
ATOM     22  C   UNL     1      32.605  60.410  58.745  0.00  0.00    +0.000 C 
ENDBRANCH   5  21
BRANCH   6  23
ATOM     23  O   UNL     1      33.689  59.067  55.022  0.00  0.00    +0.000 OA
ATOM     24  C   UNL     1      33.749  60.267  54.277  0.00  0.00    +0.000 C 
ENDBRANCH   6  23
TORSDOF 5
ENDMDL
MODEL 4
REMARK VINA RESULT:      -6.1      1.910      6.677
REMARK  Name = 
REMARK  5 active torsions:
REMARK  status: ('A' for Active; 'I' for Inactive)
REMARK    1  A    between atoms: O_2  and  C_3
REMARK    2  A    between atoms: C_5  and  C_6
REMARK    3  A    between atoms: C_7  and  C_9
REMARK    4  A    between atoms: C_19  and  O_20
REMARK    5  A    between atoms: C_22  and  O_23
REMARK                            x       y       z     vdW  Elec       q    Type
REMARK                         _______ _______ _______ _____ _____    ______ ____
ROOT
ATOM      1  C   UNL     1      33.949  59.011  57.348  0.00  0.00    +0.000 A 
ATOM      2  C   UNL     1      34.670  58.775  58.477  0.00  0.00    +0.000 A 
ATOM      3  C   UNL     1      35.952  58.296  58.534  0.00  0.00    +0.000 A 
ATOM      4  C   UNL     1      36.515  58.045  57.265  0.00  0.00    +0.000 A 
ATOM      5  C   UNL     1      35.830  58.266  56.098  0.00  0.00    +0.000 A 
ATOM      6  C   UNL     1      34.539  58.752  56.131  0.00  0.00    +0.000 A 
ENDROOT
BRANCH   3   7
ATOM      7  C   UNL     1      36.775  58.020  59.647  0.00  0.00    +0.000 C 
ATOM      8  C   UNL     1      36.934  56.902  60.246  0.00  0.00    +0.000 C 
ATOM      9  C   UNL     1      37.898  56.891  61.428  0.00  0.00    +0.000 C 
BRANCH   8  10
ATOM     10  C   UNL     1      36.239  55.708  59.907  0.00  0.00    +0.000 A 
ATOM     11  C   UNL     1      34.927  55.547  60.360  0.00  0.00    +0.000 A 
ATOM     12  C   UNL     1      34.175  54.448  60.065  0.00  0.00    +0.000 A 
ATOM     13  C   UNL     1      34.687  53.431  59.293  0.00  0.00    +0.000 A 
ATOM     14  C   UNL     1      35.979  53.565  58.833  0.00  0.00    +0.000 A 
ATOM     15  C   UNL     1      36.711  54.688  59.149  0.00  0.00    +0.000 A 
ATOM     16  O   UNL     1      36.248  52.426  58.094  0.00  0.00    +0.000 OA
ATOM     17  C   UNL     1      35.250  51.450  58.336  0.00  0.00    +0.000 C 
ATOM     18  O   UNL     1      34.180  52.217  58.832  0.00  0.00    +0.000 OA
ENDBRANCH   8  10
ENDBRANCH   3   7
BRANCH   1  20
ATOM     19  C   UNL     1      32.296  60.673  58.086  0.00  0.00    +0.000 C 
ATOM     20  O   UNL     1      32.641  59.502  57.381  0.00  0.00    +0.000 OA
ENDBRANCH   1  20
BRANCH   5  21
ATOM     21  O   UNL     1      36.383  58.021  54.844  0.00  0.00    +0.000 OA
ATOM     22  C   UNL     1      37.615  58.629  54.545  0.00  0.00    +0.000 C 
ENDBRANCH   5  21
BRANCH   6  23
ATOM     23  O   UNL     1      33.839  58.979  54.975  0.00  0.00    +0.000 OA
ATOM     24  C   UNL     1      33.814  60.209  54.278  0.00  0.00    +0.000 C 
ENDBRANCH   6  23
TORSDOF 5
ENDMDL
MODEL 5
REMARK VINA RESULT:      -5.8      1.601      6.438
REMARK  Name = 
REMARK  5 active torsions:
REMARK  status: ('A' for Active; 'I' for Inactive)
REMARK    1  A    between atoms: O_2  and  C_3
REMARK    2  A    between atoms: C_5  and  C_6
REMARK    3  A    between atoms: C_7  and  C_9
REMARK    4  A    between atoms: C_19  and  O_20
REMARK    5  A    between atoms: C_22  and  O_23
REMARK                            x       y       z     vdW  Elec       q    Type
REMARK                         _______ _______ _______ _____ _____    ______ ____
ROOT
ATOM      1  C   UNL     1      36.770  58.245  56.070  0.00  0.00    +0.000 A 
ATOM      2  C   UNL     1      36.014  57.304  56.697  0.00  0.00    +0.000 A 
ATOM      3  C   UNL     1      35.590  57.342  57.999  0.00  0.00    +0.000 A 
ATOM      4  C   UNL     1      36.015  58.492  58.695  0.00  0.00    +0.000 A 
ATOM      5  C   UNL     1      36.778  59.468  58.109  0.00  0.00    +0.000 A 
ATOM      6  C   UNL     1      37.162  59.351  56.789  0.00  0.00    +0.000 A 
ENDROOT
BRANCH   3   7
ATOM      7  C   UNL     1      34.810  56.421  58.732  0.00  0.00    +0.000 C 
ATOM      8  C   UNL     1      35.219  55.481  59.496  0.00  0.00    +0.000 C 
ATOM      9  C   UNL     1      34.145  54.635  60.173  0.00  0.00    +0.000 C 
BRANCH   8  10
ATOM     10  C   UNL     1      36.588  55.160  59.704  0.00  0.00    +0.000 A 
ATOM     11  C   UNL     1      37.248  55.726  60.797  0.00  0.00    +0.000 A 
ATOM     12  C   UNL     1      38.553  55.457  61.090  0.00  0.00    +0.000 A 
ATOM     13  C   UNL     1      39.289  54.600  60.306  0.00  0.00    +0.000 A 
ATOM     14  C   UNL     1      38.661  54.027  59.222  0.00  0.00    +0.000 A 
ATOM     15  C   UNL     1      37.342  54.319  58.953  0.00  0.00    +0.000 A 
ATOM     16  O   UNL     1      39.603  53.219  58.609  0.00  0.00    +0.000 OA
ATOM     17  C   UNL     1      40.892  53.513  59.120  0.00  0.00    +0.000 C 
ATOM     18  O   UNL     1      40.604  54.138  60.347  0.00  0.00    +0.000 OA
ENDBRANCH   8  10
ENDBRANCH   3   7
BRANCH   1  20
ATOM     19  C   UNL     1      36.294  58.444  53.667  0.00  0.00    +0.000 C 
ATOM     20  O   UNL     1      37.160  58.127  54.733  0.00  0.00    +0.000 OA
ENDBRANCH   1  20
BRANCH   5  21
ATOM     21  O   UNL     1      37.199  60.605  58.794  0.00  0.00    +0.000 OA
ATOM     22  C   UNL     1      38.193  60.446  59.774  0.00  0.00    +0.000 C 
ENDBRANCH   5  21
BRANCH   6  23
ATOM     23  O   UNL     1      37.926  60.317  56.186  0.00  0.00    +0.000 OA
ATOM     24  C   UNL     1      37.411  61.486  55.579  0.00  0.00    +0.000 C 
ENDBRANCH   6  23
TORSDOF 5
ENDMDL
MODEL 6
REMARK VINA RESULT:      -5.8      1.619      6.085
REMARK  Name = 
REMARK  5 active torsions:
REMARK  status: ('A' for Active; 'I' for Inactive)
REMARK    1  A    between atoms: O_2  and  C_3
REMARK    2  A    between atoms: C_5  and  C_6
REMARK    3  A    between atoms: C_7  and  C_9
REMARK    4  A    between atoms: C_19  and  O_20
REMARK    5  A    between atoms: C_22  and  O_23
REMARK                            x       y       z     vdW  Elec       q    Type
REMARK                         _______ _______ _______ _____ _____    ______ ____
ROOT
ATOM      1  C   UNL     1      37.021  59.428  58.025  0.00  0.00    +0.000 A 
ATOM      2  C   UNL     1      36.282  58.513  58.709  0.00  0.00    +0.000 A 
ATOM      3  C   UNL     1      35.665  57.411  58.180  0.00  0.00    +0.000 A 
ATOM      4  C   UNL     1      35.857  57.274  56.789  0.00  0.00    +0.000 A 
ATOM      5  C   UNL     1      36.591  58.168  56.055  0.00  0.00    +0.000 A 
ATOM      6  C   UNL     1      37.180  59.254  56.669  0.00  0.00    +0.000 A 
ENDROOT
BRANCH   3   7
ATOM      7  C   UNL     1      34.883  56.414  58.803  0.00  0.00    +0.000 C 
ATOM      8  C   UNL     1      35.290  55.416  59.491  0.00  0.00    +0.000 C 
ATOM      9  C   UNL     1      34.215  54.493  60.056  0.00  0.00    +0.000 C 
BRANCH   8  10
ATOM     10  C   UNL     1      36.659  55.102  59.711  0.00  0.00    +0.000 A 
ATOM     11  C   UNL     1      37.300  55.651  60.824  0.00  0.00    +0.000 A 
ATOM     12  C   UNL     1      38.604  55.386  61.128  0.00  0.00    +0.000 A 
ATOM     13  C   UNL     1      39.356  54.551  60.337  0.00  0.00    +0.000 A 
ATOM     14  C   UNL     1      38.747  53.995  59.233  0.00  0.00    +0.000 A 
ATOM     15  C   UNL     1      37.430  54.282  58.953  0.00  0.00    +0.000 A 
ATOM     16  O   UNL     1      39.704  53.208  58.616  0.00  0.00    +0.000 OA
ATOM     17  C   UNL     1      40.983  53.501  59.150  0.00  0.00    +0.000 C 
ATOM     18  O   UNL     1      40.674  54.099  60.385  0.00  0.00    +0.000 OA
ENDBRANCH   8  10
ENDBRANCH   3   7
BRANCH   1  20
ATOM     19  C   UNL     1      38.206  60.442  59.925  0.00  0.00    +0.000 C 
ATOM     20  O   UNL     1      37.617  60.529  58.647  0.00  0.00    +0.000 OA
ENDBRANCH   1  20
BRANCH   5  21
ATOM     21  O   UNL     1      36.783  58.035  54.682  0.00  0.00    +0.000 OA
ATOM     22  C   UNL     1      35.720  58.400  53.837  0.00  0.00    +0.000 C 
ENDBRANCH   5  21
BRANCH   6  23
ATOM     23  O   UNL     1      37.919  60.159  55.951  0.00  0.00    +0.000 OA
ATOM     24  C   UNL     1      37.423  61.384  55.449  0.00  0.00    +0.000 C 
ENDBRANCH   6  23
TORSDOF 5
ENDMDL
MODEL 7
REMARK VINA RESULT:      -5.7      2.894      6.957
REMARK  Name = 
REMARK  5 active torsions:
REMARK  status: ('A' for Active; 'I' for Inactive)
REMARK    1  A    between atoms: O_2  and  C_3
REMARK    2  A    between atoms: C_5  and  C_6
REMARK    3  A    between atoms: C_7  and  C_9
REMARK    4  A    between atoms: C_19  and  O_20
REMARK    5  A    between atoms: C_22  and  O_23
REMARK                            x       y       z     vdW  Elec       q    Type
REMARK                         _______ _______ _______ _____ _____    ______ ____
ROOT
ATOM      1  C   UNL     1      36.143  51.736  59.461  0.00  0.00    +0.000 A 
ATOM      2  C   UNL     1      37.461  51.641  59.139  0.00  0.00    +0.000 A 
ATOM      3  C   UNL     1      38.249  52.648  58.648  0.00  0.00    +0.000 A 
ATOM      4  C   UNL     1      37.563  53.870  58.487  0.00  0.00    +0.000 A 
ATOM      5  C   UNL     1      36.237  54.017  58.796  0.00  0.00    +0.000 A 
ATOM      6  C   UNL     1      35.515  52.948  59.287  0.00  0.00    +0.000 A 
ENDROOT
BRANCH   3   7
ATOM      7  C   UNL     1      39.614  52.646  58.286  0.00  0.00    +0.000 C 
ATOM      8  C   UNL     1      40.623  52.881  59.034  0.00  0.00    +0.000 C 
ATOM      9  C   UNL     1      41.996  52.804  58.373  0.00  0.00    +0.000 C 
BRANCH   8  10
ATOM     10  C   UNL     1      40.533  53.251  60.404  0.00  0.00    +0.000 A 
ATOM     11  C   UNL     1      40.791  52.281  61.376  0.00  0.00    +0.000 A 
ATOM     12  C   UNL     1      40.753  52.549  62.713  0.00  0.00    +0.000 A 
ATOM     13  C   UNL     1      40.452  53.811  63.170  0.00  0.00    +0.000 A 
ATOM     14  C   UNL     1      40.194  54.787  62.232  0.00  0.00    +0.000 A 
ATOM     15  C   UNL     1      40.242  54.483  60.889  0.00  0.00    +0.000 A 
ATOM     16  O   UNL     1      39.925  55.945  62.940  0.00  0.00    +0.000 OA
ATOM     17  C   UNL     1      39.717  55.635  64.307  0.00  0.00    +0.000 C 
ATOM     18  O   UNL     1      40.340  54.380  64.438  0.00  0.00    +0.000 OA
ENDBRANCH   8  10
ENDBRANCH   3   7
BRANCH   1  20
ATOM     19  C   UNL     1      35.452  50.280  61.317  0.00  0.00    +0.000 C 
ATOM     20  O   UNL     1      35.411  50.653  59.958  0.00  0.00    +0.000 OA
ENDBRANCH   1  20
BRANCH   5  21
ATOM     21  O   UNL     1      35.557  55.222  58.639  0.00  0.00    +0.000 OA
ATOM     22  C   UNL     1      36.210  56.252  57.939  0.00  0.00    +0.000 C 
ENDBRANCH   5  21
BRANCH   6  23
ATOM     23  O   UNL     1      34.187  53.077  59.603  0.00  0.00    +0.000 OA
ATOM     24  C   UNL     1      33.121  52.870  58.696  0.00  0.00    +0.000 C 
ENDBRANCH   6  23
TORSDOF 5
ENDMDL
MODEL 8
REMARK VINA RESULT:      -5.7      2.792      6.770
REMARK  Name = 
REMARK  5 active torsions:
REMARK  status: ('A' for Active; 'I' for Inactive)
REMARK    1  A    between atoms: O_2  and  C_3
REMARK    2  A    between atoms: C_5  and  C_6
REMARK    3  A    between atoms: C_7  and  C_9
REMARK    4  A    between atoms: C_19  and  O_20
REMARK    5  A    between atoms: C_22  and  O_23
REMARK                            x       y       z     vdW  Elec       q    Type
REMARK                         _______ _______ _______ _____ _____    ______ ____
ROOT
ATOM      1  C   UNL     1      36.169  54.215  58.833  0.00  0.00    +0.000 A 
ATOM      2  C   UNL     1      37.484  54.136  58.495  0.00  0.00    +0.000 A 
ATOM      3  C   UNL     1      38.265  53.011  58.537  0.00  0.00    +0.000 A 
ATOM      4  C   UNL     1      37.575  51.865  58.983  0.00  0.00    +0.000 A 
ATOM      5  C   UNL     1      36.251  51.892  59.336  0.00  0.00    +0.000 A 
ATOM      6  C   UNL     1      35.536  53.070  59.263  0.00  0.00    +0.000 A 
ENDROOT
BRANCH   3   7
ATOM      7  C   UNL     1      39.626  52.832  58.210  0.00  0.00    +0.000 C 
ATOM      8  C   UNL     1      40.638  52.938  58.983  0.00  0.00    +0.000 C 
ATOM      9  C   UNL     1      42.006  52.683  58.358  0.00  0.00    +0.000 C 
BRANCH   8  10
ATOM     10  C   UNL     1      40.562  53.320  60.351  0.00  0.00    +0.000 A 
ATOM     11  C   UNL     1      40.904  52.380  61.327  0.00  0.00    +0.000 A 
ATOM     12  C   UNL     1      40.884  52.663  62.661  0.00  0.00    +0.000 A 
ATOM     13  C   UNL     1      40.521  53.911  63.111  0.00  0.00    +0.000 A 
ATOM     14  C   UNL     1      40.180  54.857  62.169  0.00  0.00    +0.000 A 
ATOM     15  C   UNL     1      40.210  54.539  60.830  0.00  0.00    +0.000 A 
ATOM     16  O   UNL     1      39.860  56.006  62.870  0.00  0.00    +0.000 OA
ATOM     17  C   UNL     1      39.707  55.702  64.246  0.00  0.00    +0.000 C 
ATOM     18  O   UNL     1      40.408  54.489  64.375  0.00  0.00    +0.000 OA
ENDBRANCH   8  10
ENDBRANCH   3   7
BRANCH   1  20
ATOM     19  C   UNL     1      35.943  56.550  58.102  0.00  0.00    +0.000 C 
ATOM     20  O   UNL     1      35.445  55.408  58.761  0.00  0.00    +0.000 OA
ENDBRANCH   1  20
BRANCH   5  21
ATOM     21  O   UNL     1      35.567  50.762  59.775  0.00  0.00    +0.000 OA
ATOM     22  C   UNL     1      36.142  50.017  60.820  0.00  0.00    +0.000 C 
ENDBRANCH   5  21
BRANCH   6  23
ATOM     23  O   UNL     1      34.211  53.117  59.612  0.00  0.00    +0.000 OA
ATOM     24  C   UNL     1      33.137  52.895  58.720  0.00  0.00    +0.000 C 
ENDBRANCH   6  23
TORSDOF 5
ENDMDL
MODEL 9
REMARK VINA RESULT:      -5.7      5.079      7.896
REMARK  Name = 
REMARK  5 active torsions:
REMARK  status: ('A' for Active; 'I' for Inactive)
REMARK    1  A    between atoms: O_2  and  C_3
REMARK    2  A    between atoms: C_5  and  C_6
REMARK    3  A    between atoms: C_7  and  C_9
REMARK    4  A    between atoms: C_19  and  O_20
REMARK    5  A    between atoms: C_22  and  O_23
REMARK                            x       y       z     vdW  Elec       q    Type
REMARK                         _______ _______ _______ _____ _____    ______ ____
ROOT
ATOM      1  C   UNL     1      39.613  50.482  59.922  0.00  0.00    +0.000 A 
ATOM      2  C   UNL     1      38.316  50.566  59.523  0.00  0.00    +0.000 A 
ATOM      3  C   UNL     1      37.609  51.718  59.302  0.00  0.00    +0.000 A 
ATOM      4  C   UNL     1      38.361  52.890  59.529  0.00  0.00    +0.000 A 
ATOM      5  C   UNL     1      39.670  52.859  59.932  0.00  0.00    +0.000 A 
ATOM      6  C   UNL     1      40.307  51.652  60.132  0.00  0.00    +0.000 A 
ENDROOT
BRANCH   3   7
ATOM      7  C   UNL     1      36.271  51.904  58.892  0.00  0.00    +0.000 C 
ATOM      8  C   UNL     1      35.207  51.693  59.568  0.00  0.00    +0.000 C 
ATOM      9  C   UNL     1      33.884  51.988  58.870  0.00  0.00    +0.000 C 
BRANCH   8  10
ATOM     10  C   UNL     1      35.192  51.164  60.888  0.00  0.00    +0.000 A 
ATOM     11  C   UNL     1      35.370  52.041  61.961  0.00  0.00    +0.000 A 
ATOM     12  C   UNL     1      35.346  51.629  63.262  0.00  0.00    +0.000 A 
ATOM     13  C   UNL     1      35.141  50.307  63.578  0.00  0.00    +0.000 A 
ATOM     14  C   UNL     1      34.961  49.420  62.538  0.00  0.00    +0.000 A 
ATOM     15  C   UNL     1      34.991  49.869  61.236  0.00  0.00    +0.000 A 
ATOM     16  O   UNL     1      34.778  48.176  63.114  0.00  0.00    +0.000 OA
ATOM     17  C   UNL     1      35.138  48.224  64.484  0.00  0.00    +0.000 C 
ATOM     18  O   UNL     1      35.064  49.599  64.776  0.00  0.00    +0.000 OA
ENDBRANCH   8  10
ENDBRANCH   3   7
BRANCH   1  20
ATOM     19  C   UNL     1      39.552  48.074  60.409  0.00  0.00    +0.000 C 
ATOM     20  O   UNL     1      40.260  49.259  60.125  0.00  0.00    +0.000 OA
ENDBRANCH   1  20
BRANCH   5  21
ATOM     21  O   UNL     1      40.414  54.014  60.156  0.00  0.00    +0.000 OA
ATOM     22  C   UNL     1      40.149  54.744  61.328  0.00  0.00    +0.000 C 
ENDBRANCH   5  21
BRANCH   6  23
ATOM     23  O   UNL     1      41.617  51.602  60.535  0.00  0.00    +0.000 OA
ATOM     24  C   UNL     1      42.720  51.432  59.666  0.00  0.00    +0.000 C 
ENDBRANCH   6  23
TORSDOF 5
ENDMDL
MODEL 10
REMARK VINA RESULT:      -5.6      5.215      7.776
REMARK  Name = 
REMARK  5 active torsions:
REMARK  status: ('A' for Active; 'I' for Inactive)
REMARK    1  A    between atoms: O_2  and  C_3
REMARK    2  A    between atoms: C_5  and  C_6
REMARK    3  A    between atoms: C_7  and  C_9
REMARK    4  A    between atoms: C_19  and  O_20
REMARK    5  A    between atoms: C_22  and  O_23
REMARK                            x       y       z     vdW  Elec       q    Type
REMARK                         _______ _______ _______ _____ _____    ______ ____
ROOT
ATOM      1  C   UNL     1      39.675  52.756  60.155  0.00  0.00    +0.000 A 
ATOM      2  C   UNL     1      38.390  52.818  59.714  0.00  0.00    +0.000 A 
ATOM      3  C   UNL     1      37.590  51.752  59.397  0.00  0.00    +0.000 A 
ATOM      4  C   UNL     1      38.224  50.504  59.568  0.00  0.00    +0.000 A 
ATOM      5  C   UNL     1      39.516  50.388  60.009  0.00  0.00    +0.000 A 
ATOM      6  C   UNL     1      40.253  51.516  60.306  0.00  0.00    +0.000 A 
ENDROOT
BRANCH   3   7
ATOM      7  C   UNL     1      36.256  51.717  58.935  0.00  0.00    +0.000 C 
ATOM      8  C   UNL     1      35.206  51.413  59.596  0.00  0.00    +0.000 C 
ATOM      9  C   UNL     1      33.883  51.464  58.838  0.00  0.00    +0.000 C 
BRANCH   8  10
ATOM     10  C   UNL     1      35.210  50.992  60.954  0.00  0.00    +0.000 A 
ATOM     11  C   UNL     1      35.358  51.958  61.952  0.00  0.00    +0.000 A 
ATOM     12  C   UNL     1      35.350  51.652  63.282  0.00  0.00    +0.000 A 
ATOM     13  C   UNL     1      35.193  50.353  63.704  0.00  0.00    +0.000 A 
ATOM     14  C   UNL     1      35.044  49.379  62.740  0.00  0.00    +0.000 A 
ATOM     15  C   UNL     1      35.057  49.722  61.406  0.00  0.00    +0.000 A 
ATOM     16  O   UNL     1      34.905  48.180  63.415  0.00  0.00    +0.000 OA
ATOM     17  C   UNL     1      35.265  48.351  64.775  0.00  0.00    +0.000 C 
ATOM     18  O   UNL     1      35.142  49.741  64.956  0.00  0.00    +0.000 OA
ENDBRANCH   8  10
ENDBRANCH   3   7
BRANCH   1  20
ATOM     19  C   UNL     1      40.115  54.729  61.552  0.00  0.00    +0.000 C 
ATOM     20  O   UNL     1      40.422  53.898  60.456  0.00  0.00    +0.000 OA
ENDBRANCH   1  20
BRANCH   5  21
ATOM     21  O   UNL     1      40.144  49.157  60.179  0.00  0.00    +0.000 OA
ATOM     22  C   UNL     1      39.340  48.004  60.143  0.00  0.00    +0.000 C 
ENDBRANCH   5  21
BRANCH   6  23
ATOM     23  O   UNL     1      41.547  51.419  60.749  0.00  0.00    +0.000 OA
ATOM     24  C   UNL     1      41.929  51.348  62.108  0.00  0.00    +0.000 C 
ENDBRANCH   6  23
TORSDOF 5
ENDMDL
