REMARK  Name = 
REMARK  2 active torsions:
REMARK  status: ('A' for Active; 'I' for Inactive)
REMARK    1  A    between atoms: C_5  and  C_6
REMARK    2  A    between atoms: C_7  and  C_8
REMARK                            x       y       z     vdW  Elec       q    Type
REMARK                         _______ _______ _______ _____ _____    ______ ____
ROOT
ATOM      1  C   UNL     1       0.534  -2.067  -0.589  0.00  0.00    +0.000 C 
ATOM      2  C   UNL     1      -0.712  -2.026  -0.624  0.00  0.00    +0.000 C 
ENDROOT
BRANCH   2   3
ATOM      3  C   UNL     1      -1.501  -0.877  -0.309  0.00  0.00    +0.000 A 
ATOM      4  C   UNL     1      -2.899  -0.968  -0.390  0.00  0.00    +0.000 A 
ATOM      5  C   UNL     1      -3.698   0.101  -0.099  0.00  0.00    +0.000 A 
ATOM      6  O   UNL     1      -5.074   0.011  -0.179  0.00  0.00    +0.000 OA
ATOM      7  C   UNL     1      -3.176   1.319   0.288  0.00  0.00    +0.000 A 
ATOM      8  C   UNL     1      -1.783   1.427   0.374  0.00  0.00    +0.000 A 
ATOM      9  O   UNL     1      -1.194   2.611   0.753  0.00  0.00    +0.000 OA
ATOM     10  C   UNL     1      -1.017   0.322   0.071  0.00  0.00    +0.000 A 
ENDBRANCH   2   3
BRANCH   1  15
ATOM     11  O   UNL     1       4.814   1.452   0.636  0.00  0.00    +0.000 OA
ATOM     12  C   UNL     1       3.734   0.634   0.348  0.00  0.00    +0.000 A 
ATOM     13  C   UNL     1       3.868  -0.675  -0.041  0.00  0.00    +0.000 A 
ATOM     14  C   UNL     1       2.831  -1.511  -0.333  0.00  0.00    +0.000 A 
ATOM     15  C   UNL     1       1.492  -1.061  -0.249  0.00  0.00    +0.000 A 
ATOM     16  C   UNL     1       1.372   0.228   0.135  0.00  0.00    +0.000 A 
ATOM     17  C   UNL     1       2.410   1.079   0.431  0.00  0.00    +0.000 A 
ENDBRANCH   1  15
TORSDOF 2
