MODEL 1
REMARK VINA RESULT:      -6.1      0.000      0.000
REMARK  Name = 
REMARK  6 active torsions:
REMARK  status: ('A' for Active; 'I' for Inactive)
REMARK    1  A    between atoms: O_2  and  C_3
REMARK    2  A    between atoms: C_5  and  C_6
REMARK    3  A    between atoms: C_7  and  C_8
REMARK    4  A    between atoms: C_11  and  O_12
REMARK    5  A    between atoms: C_14  and  O_15
REMARK    6  A    between atoms: C_19  and  O_20
REMARK                            x       y       z     vdW  Elec       q    Type
REMARK                         _______ _______ _______ _____ _____    ______ ____
ROOT
ATOM      1  C   UNL     1      35.450  55.930  58.866  0.00  0.00    +0.000 C 
ATOM      2  C   UNL     1      36.067  56.628  57.955  0.00  0.00    +0.000 C 
ENDROOT
BRANCH   1   5
ATOM      3  C   UNL     1      35.794  53.194  61.381  0.00  0.00    +0.000 A 
ATOM      4  C   UNL     1      35.309  54.133  60.494  0.00  0.00    +0.000 A 
ATOM      5  C   UNL     1      36.104  54.989  59.766  0.00  0.00    +0.000 A 
ATOM      6  C   UNL     1      37.463  54.918  59.918  0.00  0.00    +0.000 A 
ATOM      7  C   UNL     1      37.997  53.979  60.809  0.00  0.00    +0.000 A 
ATOM      8  C   UNL     1      37.165  53.140  61.519  0.00  0.00    +0.000 A 
BRANCH   3  10
ATOM      9  C   UNL     1      35.185  50.949  61.999  0.00  0.00    +0.000 C 
ATOM     10  O   UNL     1      34.947  52.340  62.103  0.00  0.00    +0.000 OA
ENDBRANCH   3  10
BRANCH   7  11
ATOM     11  O   UNL     1      39.366  53.878  60.990  0.00  0.00    +0.000 OA
ATOM     12  C   UNL     1      40.220  53.985  59.879  0.00  0.00    +0.000 C 
ENDBRANCH   7  11
ENDBRANCH   1   5
BRANCH   2  13
ATOM     13  C   UNL     1      35.363  57.574  57.062  0.00  0.00    +0.000 A 
ATOM     14  C   UNL     1      34.310  58.307  57.568  0.00  0.00    +0.000 A 
ATOM     15  C   UNL     1      33.605  59.207  56.800  0.00  0.00    +0.000 A 
ATOM     16  C   UNL     1      33.946  59.395  55.479  0.00  0.00    +0.000 A 
ATOM     17  C   UNL     1      34.996  58.661  54.976  0.00  0.00    +0.000 A 
ATOM     18  C   UNL     1      35.708  57.752  55.754  0.00  0.00    +0.000 A 
BRANCH  16  19
ATOM     19  O   UNL     1      33.242  60.308  54.671  0.00  0.00    +0.000 OA
ATOM     20  C   UNL     1      31.946  60.721  55.002  0.00  0.00    +0.000 C 
ENDBRANCH  16  19
BRANCH  17  21
ATOM     21  O   UNL     1      35.316  58.875  53.631  0.00  0.00    +0.000 OA
ATOM     22  C   UNL     1      36.671  58.860  53.255  0.00  0.00    +0.000 C 
ENDBRANCH  17  21
ENDBRANCH   2  13
TORSDOF 6
ENDMDL
MODEL 2
REMARK VINA RESULT:      -6.1      0.705      2.671
REMARK  Name = 
REMARK  6 active torsions:
REMARK  status: ('A' for Active; 'I' for Inactive)
REMARK    1  A    between atoms: O_2  and  C_3
REMARK    2  A    between atoms: C_5  and  C_6
REMARK    3  A    between atoms: C_7  and  C_8
REMARK    4  A    between atoms: C_11  and  O_12
REMARK    5  A    between atoms: C_14  and  O_15
REMARK    6  A    between atoms: C_19  and  O_20
REMARK                            x       y       z     vdW  Elec       q    Type
REMARK                         _______ _______ _______ _____ _____    ______ ____
ROOT
ATOM      1  C   UNL     1      35.598  56.015  58.949  0.00  0.00    +0.000 C 
ATOM      2  C   UNL     1      36.158  56.270  57.800  0.00  0.00    +0.000 C 
ENDROOT
BRANCH   1   5
ATOM      3  C   UNL     1      38.035  54.050  60.980  0.00  0.00    +0.000 A 
ATOM      4  C   UNL     1      37.440  54.941  60.111  0.00  0.00    +0.000 A 
ATOM      5  C   UNL     1      36.082  55.022  59.898  0.00  0.00    +0.000 A 
ATOM      6  C   UNL     1      35.256  54.171  60.583  0.00  0.00    +0.000 A 
ATOM      7  C   UNL     1      35.819  53.250  61.474  0.00  0.00    +0.000 A 
ATOM      8  C   UNL     1      37.184  53.203  61.658  0.00  0.00    +0.000 A 
BRANCH   3  10
ATOM      9  C   UNL     1      40.235  53.996  60.006  0.00  0.00    +0.000 C 
ATOM     10  O   UNL     1      39.425  54.002  61.166  0.00  0.00    +0.000 OA
ENDBRANCH   3  10
BRANCH   7  11
ATOM     11  O   UNL     1      35.015  52.374  62.184  0.00  0.00    +0.000 OA
ATOM     12  C   UNL     1      35.304  50.999  62.163  0.00  0.00    +0.000 C 
ENDBRANCH   7  11
ENDBRANCH   1   5
BRANCH   2  13
ATOM     13  C   UNL     1      35.632  57.288  56.865  0.00  0.00    +0.000 A 
ATOM     14  C   UNL     1      34.693  58.188  57.324  0.00  0.00    +0.000 A 
ATOM     15  C   UNL     1      34.156  59.166  56.515  0.00  0.00    +0.000 A 
ATOM     16  C   UNL     1      34.556  59.263  55.201  0.00  0.00    +0.000 A 
ATOM     17  C   UNL     1      35.492  58.363  54.746  0.00  0.00    +0.000 A 
ATOM     18  C   UNL     1      36.034  57.377  55.565  0.00  0.00    +0.000 A 
BRANCH  16  19
ATOM     19  O   UNL     1      34.022  60.253  54.352  0.00  0.00    +0.000 OA
ATOM     20  C   UNL     1      34.394  61.595  54.481  0.00  0.00    +0.000 C 
ENDBRANCH  16  19
BRANCH  17  21
ATOM     21  O   UNL     1      35.877  58.490  53.407  0.00  0.00    +0.000 OA
ATOM     22  C   UNL     1      37.062  59.188  53.114  0.00  0.00    +0.000 C 
ENDBRANCH  17  21
ENDBRANCH   2  13
TORSDOF 6
ENDMDL
MODEL 3
REMARK VINA RESULT:      -6.0      1.644      8.482
REMARK  Name = 
REMARK  6 active torsions:
REMARK  status: ('A' for Active; 'I' for Inactive)
REMARK    1  A    between atoms: O_2  and  C_3
REMARK    2  A    between atoms: C_5  and  C_6
REMARK    3  A    between atoms: C_7  and  C_8
REMARK    4  A    between atoms: C_11  and  O_12
REMARK    5  A    between atoms: C_14  and  O_15
REMARK    6  A    between atoms: C_19  and  O_20
REMARK                            x       y       z     vdW  Elec       q    Type
REMARK                         _______ _______ _______ _____ _____    ______ ____
ROOT
ATOM      1  C   UNL     1      34.928  57.513  57.634  0.00  0.00    +0.000 C 
ATOM      2  C   UNL     1      36.007  56.792  57.512  0.00  0.00    +0.000 C 
ENDROOT
BRANCH   1   5
ATOM      3  C   UNL     1      34.684  59.247  54.338  0.00  0.00    +0.000 A 
ATOM      4  C   UNL     1      35.042  58.423  55.384  0.00  0.00    +0.000 A 
ATOM      5  C   UNL     1      34.443  58.445  56.624  0.00  0.00    +0.000 A 
ATOM      6  C   UNL     1      33.427  59.335  56.849  0.00  0.00    +0.000 A 
ATOM      7  C   UNL     1      33.032  60.190  55.814  0.00  0.00    +0.000 A 
ATOM      8  C   UNL     1      33.659  60.135  54.587  0.00  0.00    +0.000 A 
BRANCH   3  10
ATOM      9  C   UNL     1      36.719  58.966  53.085  0.00  0.00    +0.000 C 
ATOM     10  O   UNL     1      35.322  59.190  53.089  0.00  0.00    +0.000 OA
ENDBRANCH   3  10
BRANCH   7  11
ATOM     11  O   UNL     1      32.009  61.103  56.005  0.00  0.00    +0.000 OA
ATOM     12  C   UNL     1      30.695  60.640  56.186  0.00  0.00    +0.000 C 
ENDBRANCH   7  11
ENDBRANCH   1   5
BRANCH   2  13
ATOM     13  C   UNL     1      36.464  55.858  58.563  0.00  0.00    +0.000 A 
ATOM     14  C   UNL     1      36.975  56.375  59.735  0.00  0.00    +0.000 A 
ATOM     15  C   UNL     1      37.421  55.571  60.761  0.00  0.00    +0.000 A 
ATOM     16  C   UNL     1      37.363  54.201  60.631  0.00  0.00    +0.000 A 
ATOM     17  C   UNL     1      36.853  53.687  59.461  0.00  0.00    +0.000 A 
ATOM     18  C   UNL     1      36.403  54.501  58.426  0.00  0.00    +0.000 A 
BRANCH  16  19
ATOM     19  O   UNL     1      37.812  53.355  61.664  0.00  0.00    +0.000 OA
ATOM     20  C   UNL     1      38.600  53.845  62.712  0.00  0.00    +0.000 C 
ENDBRANCH  16  19
BRANCH  17  21
ATOM     21  O   UNL     1      36.809  52.292  59.361  0.00  0.00    +0.000 OA
ATOM     22  C   UNL     1      35.813  51.710  58.557  0.00  0.00    +0.000 C 
ENDBRANCH  17  21
ENDBRANCH   2  13
TORSDOF 6
ENDMDL
MODEL 4
REMARK VINA RESULT:      -5.9      1.424      8.472
REMARK  Name = 
REMARK  6 active torsions:
REMARK  status: ('A' for Active; 'I' for Inactive)
REMARK    1  A    between atoms: O_2  and  C_3
REMARK    2  A    between atoms: C_5  and  C_6
REMARK    3  A    between atoms: C_7  and  C_8
REMARK    4  A    between atoms: C_11  and  O_12
REMARK    5  A    between atoms: C_14  and  O_15
REMARK    6  A    between atoms: C_19  and  O_20
REMARK                            x       y       z     vdW  Elec       q    Type
REMARK                         _______ _______ _______ _____ _____    ______ ____
ROOT
ATOM      1  C   UNL     1      35.976  57.083  57.910  0.00  0.00    +0.000 C 
ATOM      2  C   UNL     1      36.165  55.797  57.817  0.00  0.00    +0.000 C 
ENDROOT
BRANCH   1   5
ATOM      3  C   UNL     1      35.256  58.577  54.567  0.00  0.00    +0.000 A 
ATOM      4  C   UNL     1      35.794  57.863  55.617  0.00  0.00    +0.000 A 
ATOM      5  C   UNL     1      35.301  57.890  56.902  0.00  0.00    +0.000 A 
ATOM      6  C   UNL     1      34.208  58.669  57.173  0.00  0.00    +0.000 A 
ATOM      7  C   UNL     1      33.630  59.411  56.135  0.00  0.00    +0.000 A 
ATOM      8  C   UNL     1      34.156  59.354  54.862  0.00  0.00    +0.000 A 
BRANCH   3  10
ATOM      9  C   UNL     1      36.939  59.305  53.008  0.00  0.00    +0.000 C 
ATOM     10  O   UNL     1      35.791  58.519  53.271  0.00  0.00    +0.000 OA
ENDBRANCH   3  10
BRANCH   7  11
ATOM     11  O   UNL     1      32.524  60.209  56.370  0.00  0.00    +0.000 OA
ATOM     12  C   UNL     1      31.631  60.480  55.319  0.00  0.00    +0.000 C 
ENDBRANCH   7  11
ENDBRANCH   1   5
BRANCH   2  13
ATOM     13  C   UNL     1      36.855  55.014  58.865  0.00  0.00    +0.000 A 
ATOM     14  C   UNL     1      36.339  55.016  60.144  0.00  0.00    +0.000 A 
ATOM     15  C   UNL     1      36.924  54.313  61.174  0.00  0.00    +0.000 A 
ATOM     16  C   UNL     1      38.065  53.578  60.939  0.00  0.00    +0.000 A 
ATOM     17  C   UNL     1      38.578  53.578  59.662  0.00  0.00    +0.000 A 
ATOM     18  C   UNL     1      37.986  54.289  58.623  0.00  0.00    +0.000 A 
BRANCH  16  19
ATOM     19  O   UNL     1      38.684  52.850  61.974  0.00  0.00    +0.000 OA
ATOM     20  C   UNL     1      38.146  51.642  62.433  0.00  0.00    +0.000 C 
ENDBRANCH  16  19
BRANCH  17  21
ATOM     21  O   UNL     1      39.737  52.821  59.458  0.00  0.00    +0.000 OA
ATOM     22  C   UNL     1      40.139  52.555  58.137  0.00  0.00    +0.000 C 
ENDBRANCH  17  21
ENDBRANCH   2  13
TORSDOF 6
ENDMDL
MODEL 5
REMARK VINA RESULT:      -5.8      1.443      8.121
REMARK  Name = 
REMARK  6 active torsions:
REMARK  status: ('A' for Active; 'I' for Inactive)
REMARK    1  A    between atoms: O_2  and  C_3
REMARK    2  A    between atoms: C_5  and  C_6
REMARK    3  A    between atoms: C_7  and  C_8
REMARK    4  A    between atoms: C_11  and  O_12
REMARK    5  A    between atoms: C_14  and  O_15
REMARK    6  A    between atoms: C_19  and  O_20
REMARK                            x       y       z     vdW  Elec       q    Type
REMARK                         _______ _______ _______ _____ _____    ______ ____
ROOT
ATOM      1  C   UNL     1      35.706  56.973  57.825  0.00  0.00    +0.000 C 
ATOM      2  C   UNL     1      36.293  55.821  57.657  0.00  0.00    +0.000 C 
ENDROOT
BRANCH   1   5
ATOM      3  C   UNL     1      33.547  59.460  56.071  0.00  0.00    +0.000 A 
ATOM      4  C   UNL     1      34.125  58.622  57.002  0.00  0.00    +0.000 A 
ATOM      5  C   UNL     1      35.202  57.805  56.741  0.00  0.00    +0.000 A 
ATOM      6  C   UNL     1      35.745  57.811  55.484  0.00  0.00    +0.000 A 
ATOM      7  C   UNL     1      35.188  58.647  54.508  0.00  0.00    +0.000 A 
ATOM      8  C   UNL     1      34.109  59.450  54.812  0.00  0.00    +0.000 A 
BRANCH   3  10
ATOM      9  C   UNL     1      32.052  60.343  57.738  0.00  0.00    +0.000 C 
ATOM     10  O   UNL     1      32.449  60.277  56.381  0.00  0.00    +0.000 OA
ENDBRANCH   3  10
BRANCH   7  11
ATOM     11  O   UNL     1      35.710  58.680  53.227  0.00  0.00    +0.000 OA
ATOM     12  C   UNL     1      37.018  59.153  53.026  0.00  0.00    +0.000 C 
ENDBRANCH   7  11
ENDBRANCH   1   5
BRANCH   2  13
ATOM     13  C   UNL     1      36.791  55.008  58.787  0.00  0.00    +0.000 A 
ATOM     14  C   UNL     1      36.044  54.952  59.945  0.00  0.00    +0.000 A 
ATOM     15  C   UNL     1      36.440  54.217  61.041  0.00  0.00    +0.000 A 
ATOM     16  C   UNL     1      37.620  53.508  60.999  0.00  0.00    +0.000 A 
ATOM     17  C   UNL     1      38.364  53.566  59.843  0.00  0.00    +0.000 A 
ATOM     18  C   UNL     1      37.962  54.309  58.737  0.00  0.00    +0.000 A 
BRANCH  16  19
ATOM     19  O   UNL     1      38.049  52.748  62.105  0.00  0.00    +0.000 OA
ATOM     20  C   UNL     1      38.675  53.353  63.200  0.00  0.00    +0.000 C 
ENDBRANCH  16  19
BRANCH  17  21
ATOM     21  O   UNL     1      39.557  52.834  59.834  0.00  0.00    +0.000 OA
ATOM     22  C   UNL     1      40.771  53.535  59.729  0.00  0.00    +0.000 C 
ENDBRANCH  17  21
ENDBRANCH   2  13
TORSDOF 6
ENDMDL
MODEL 6
REMARK VINA RESULT:      -5.8      1.961      8.534
REMARK  Name = 
REMARK  6 active torsions:
REMARK  status: ('A' for Active; 'I' for Inactive)
REMARK    1  A    between atoms: O_2  and  C_3
REMARK    2  A    between atoms: C_5  and  C_6
REMARK    3  A    between atoms: C_7  and  C_8
REMARK    4  A    between atoms: C_11  and  O_12
REMARK    5  A    between atoms: C_14  and  O_15
REMARK    6  A    between atoms: C_19  and  O_20
REMARK                            x       y       z     vdW  Elec       q    Type
REMARK                         _______ _______ _______ _____ _____    ______ ____
ROOT
ATOM      1  C   UNL     1      36.468  56.096  57.509  0.00  0.00    +0.000 C 
ATOM      2  C   UNL     1      36.022  55.050  58.147  0.00  0.00    +0.000 C 
ENDROOT
BRANCH   1   5
ATOM      3  C   UNL     1      35.087  58.687  55.206  0.00  0.00    +0.000 A 
ATOM      4  C   UNL     1      35.808  57.653  55.766  0.00  0.00    +0.000 A 
ATOM      5  C   UNL     1      35.633  57.200  57.054  0.00  0.00    +0.000 A 
ATOM      6  C   UNL     1      34.689  57.802  57.843  0.00  0.00    +0.000 A 
ATOM      7  C   UNL     1      33.936  58.857  57.313  0.00  0.00    +0.000 A 
ATOM      8  C   UNL     1      34.143  59.280  56.017  0.00  0.00    +0.000 A 
BRANCH   3  10
ATOM      9  C   UNL     1      36.493  58.700  53.252  0.00  0.00    +0.000 C 
ATOM     10  O   UNL     1      35.298  59.117  53.887  0.00  0.00    +0.000 OA
ENDBRANCH   3  10
BRANCH   7  11
ATOM     11  O   UNL     1      32.974  59.491  58.081  0.00  0.00    +0.000 OA
ATOM     12  C   UNL     1      33.363  60.198  59.231  0.00  0.00    +0.000 C 
ENDBRANCH   7  11
ENDBRANCH   1   5
BRANCH   2  13
ATOM     13  C   UNL     1      36.906  53.951  58.592  0.00  0.00    +0.000 A 
ATOM     14  C   UNL     1      38.268  54.169  58.632  0.00  0.00    +0.000 A 
ATOM     15  C   UNL     1      39.156  53.196  59.035  0.00  0.00    +0.000 A 
ATOM     16  C   UNL     1      38.689  51.957  59.412  0.00  0.00    +0.000 A 
ATOM     17  C   UNL     1      37.330  51.742  59.370  0.00  0.00    +0.000 A 
ATOM     18  C   UNL     1      36.434  52.726  58.963  0.00  0.00    +0.000 A 
BRANCH  16  19
ATOM     19  O   UNL     1      39.575  50.943  59.827  0.00  0.00    +0.000 OA
ATOM     20  C   UNL     1      40.950  51.180  59.929  0.00  0.00    +0.000 C 
ENDBRANCH  16  19
BRANCH  17  21
ATOM     21  O   UNL     1      36.889  50.472  59.760  0.00  0.00    +0.000 OA
ATOM     22  C   UNL     1      35.664  50.370  60.441  0.00  0.00    +0.000 C 
ENDBRANCH  17  21
ENDBRANCH   2  13
TORSDOF 6
ENDMDL
MODEL 7
REMARK VINA RESULT:      -5.8      1.842      8.342
REMARK  Name = 
REMARK  6 active torsions:
REMARK  status: ('A' for Active; 'I' for Inactive)
REMARK    1  A    between atoms: O_2  and  C_3
REMARK    2  A    between atoms: C_5  and  C_6
REMARK    3  A    between atoms: C_7  and  C_8
REMARK    4  A    between atoms: C_11  and  O_12
REMARK    5  A    between atoms: C_14  and  O_15
REMARK    6  A    between atoms: C_19  and  O_20
REMARK                            x       y       z     vdW  Elec       q    Type
REMARK                         _______ _______ _______ _____ _____    ______ ____
ROOT
ATOM      1  C   UNL     1      36.497  56.103  57.284  0.00  0.00    +0.000 C 
ATOM      2  C   UNL     1      36.014  55.236  58.129  0.00  0.00    +0.000 C 
ENDROOT
BRANCH   1   5
ATOM      3  C   UNL     1      34.019  58.890  57.142  0.00  0.00    +0.000 A 
ATOM      4  C   UNL     1      34.802  57.825  57.535  0.00  0.00    +0.000 A 
ATOM      5  C   UNL     1      35.743  57.221  56.732  0.00  0.00    +0.000 A 
ATOM      6  C   UNL     1      35.927  57.695  55.460  0.00  0.00    +0.000 A 
ATOM      7  C   UNL     1      35.152  58.775  55.021  0.00  0.00    +0.000 A 
ATOM      8  C   UNL     1      34.220  59.351  55.858  0.00  0.00    +0.000 A 
BRANCH   3  10
ATOM      9  C   UNL     1      31.893  59.988  57.400  0.00  0.00    +0.000 C 
ATOM     10  O   UNL     1      33.071  59.476  57.994  0.00  0.00    +0.000 OA
ENDBRANCH   3  10
BRANCH   7  11
ATOM     11  O   UNL     1      35.309  59.281  53.742  0.00  0.00    +0.000 OA
ATOM     12  C   UNL     1      36.498  59.024  53.038  0.00  0.00    +0.000 C 
ENDBRANCH   7  11
ENDBRANCH   1   5
BRANCH   2  13
ATOM     13  C   UNL     1      36.816  54.114  58.665  0.00  0.00    +0.000 A 
ATOM     14  C   UNL     1      38.148  54.328  58.952  0.00  0.00    +0.000 A 
ATOM     15  C   UNL     1      38.960  53.334  59.455  0.00  0.00    +0.000 A 
ATOM     16  C   UNL     1      38.443  52.079  59.683  0.00  0.00    +0.000 A 
ATOM     17  C   UNL     1      37.114  51.868  59.395  0.00  0.00    +0.000 A 
ATOM     18  C   UNL     1      36.295  52.873  58.888  0.00  0.00    +0.000 A 
BRANCH  16  19
ATOM     19  O   UNL     1      39.251  51.044  60.196  0.00  0.00    +0.000 OA
ATOM     20  C   UNL     1      40.644  51.087  60.078  0.00  0.00    +0.000 C 
ENDBRANCH  16  19
BRANCH  17  21
ATOM     21  O   UNL     1      36.621  50.582  59.640  0.00  0.00    +0.000 OA
ATOM     22  C   UNL     1      35.464  50.447  60.428  0.00  0.00    +0.000 C 
ENDBRANCH  17  21
ENDBRANCH   2  13
TORSDOF 6
ENDMDL
MODEL 8
REMARK VINA RESULT:      -5.8      1.080      3.307
REMARK  Name = 
REMARK  6 active torsions:
REMARK  status: ('A' for Active; 'I' for Inactive)
REMARK    1  A    between atoms: O_2  and  C_3
REMARK    2  A    between atoms: C_5  and  C_6
REMARK    3  A    between atoms: C_7  and  C_8
REMARK    4  A    between atoms: C_11  and  O_12
REMARK    5  A    between atoms: C_14  and  O_15
REMARK    6  A    between atoms: C_19  and  O_20
REMARK                            x       y       z     vdW  Elec       q    Type
REMARK                         _______ _______ _______ _____ _____    ______ ____
ROOT
ATOM      1  C   UNL     1      35.803  56.145  58.817  0.00  0.00    +0.000 C 
ATOM      2  C   UNL     1      36.243  56.144  57.591  0.00  0.00    +0.000 C 
ENDROOT
BRANCH   1   5
ATOM      3  C   UNL     1      37.994  54.249  61.168  0.00  0.00    +0.000 A 
ATOM      4  C   UNL     1      37.499  55.123  60.223  0.00  0.00    +0.000 A 
ATOM      5  C   UNL     1      36.181  55.167  59.828  0.00  0.00    +0.000 A 
ATOM      6  C   UNL     1      35.292  54.295  60.399  0.00  0.00    +0.000 A 
ATOM      7  C   UNL     1      35.754  53.391  61.363  0.00  0.00    +0.000 A 
ATOM      8  C   UNL     1      37.083  53.380  61.730  0.00  0.00    +0.000 A 
BRANCH   3  10
ATOM      9  C   UNL     1      39.880  55.433  62.083  0.00  0.00    +0.000 C 
ATOM     10  O   UNL     1      39.347  54.239  61.541  0.00  0.00    +0.000 OA
ENDBRANCH   3  10
BRANCH   7  11
ATOM     11  O   UNL     1      34.885  52.495  61.962  0.00  0.00    +0.000 OA
ATOM     12  C   UNL     1      35.323  51.189  62.241  0.00  0.00    +0.000 C 
ENDBRANCH   7  11
ENDBRANCH   1   5
BRANCH   2  13
ATOM     13  C   UNL     1      35.832  57.158  56.595  0.00  0.00    +0.000 A 
ATOM     14  C   UNL     1      36.498  57.212  55.388  0.00  0.00    +0.000 A 
ATOM     15  C   UNL     1      36.174  58.127  54.411  0.00  0.00    +0.000 A 
ATOM     16  C   UNL     1      35.155  59.027  54.627  0.00  0.00    +0.000 A 
ATOM     17  C   UNL     1      34.493  58.972  55.832  0.00  0.00    +0.000 A 
ATOM     18  C   UNL     1      34.821  58.047  56.818  0.00  0.00    +0.000 A 
BRANCH  16  19
ATOM     19  O   UNL     1      34.804  59.974  53.644  0.00  0.00    +0.000 OA
ATOM     20  C   UNL     1      35.493  61.186  53.526  0.00  0.00    +0.000 C 
ENDBRANCH  16  19
BRANCH  17  21
ATOM     21  O   UNL     1      33.463  59.901  56.019  0.00  0.00    +0.000 OA
ATOM     22  C   UNL     1      32.735  59.860  57.221  0.00  0.00    +0.000 C 
ENDBRANCH  17  21
ENDBRANCH   2  13
TORSDOF 6
ENDMDL
MODEL 9
REMARK VINA RESULT:      -5.7      1.423      8.410
REMARK  Name = 
REMARK  6 active torsions:
REMARK  status: ('A' for Active; 'I' for Inactive)
REMARK    1  A    between atoms: O_2  and  C_3
REMARK    2  A    between atoms: C_5  and  C_6
REMARK    3  A    between atoms: C_7  and  C_8
REMARK    4  A    between atoms: C_11  and  O_12
REMARK    5  A    between atoms: C_14  and  O_15
REMARK    6  A    between atoms: C_19  and  O_20
REMARK                            x       y       z     vdW  Elec       q    Type
REMARK                         _______ _______ _______ _____ _____    ______ ____
ROOT
ATOM      1  C   UNL     1      35.232  57.292  57.918  0.00  0.00    +0.000 C 
ATOM      2  C   UNL     1      34.643  56.667  58.899  0.00  0.00    +0.000 C 
ENDROOT
BRANCH   1   5
ATOM      3  C   UNL     1      32.703  59.780  56.761  0.00  0.00    +0.000 A 
ATOM      4  C   UNL     1      33.428  58.861  57.490  0.00  0.00    +0.000 A 
ATOM      5  C   UNL     1      34.570  58.243  57.034  0.00  0.00    +0.000 A 
ATOM      6  C   UNL     1      35.030  58.548  55.781  0.00  0.00    +0.000 A 
ATOM      7  C   UNL     1      34.323  59.476  55.007  0.00  0.00    +0.000 A 
ATOM      8  C   UNL     1      33.183  60.072  55.502  0.00  0.00    +0.000 A 
BRANCH   3  10
ATOM      9  C   UNL     1      30.311  60.035  56.661  0.00  0.00    +0.000 C 
ATOM     10  O   UNL     1      31.542  60.386  57.265  0.00  0.00    +0.000 OA
ENDBRANCH   3  10
BRANCH   7  11
ATOM     11  O   UNL     1      34.757  59.809  53.735  0.00  0.00    +0.000 OA
ATOM     12  C   UNL     1      35.418  61.032  53.529  0.00  0.00    +0.000 C 
ENDBRANCH   7  11
ENDBRANCH   1   5
BRANCH   2  13
ATOM     13  C   UNL     1      35.353  55.708  59.773  0.00  0.00    +0.000 A 
ATOM     14  C   UNL     1      36.672  55.952  60.094  0.00  0.00    +0.000 A 
ATOM     15  C   UNL     1      37.401  55.107  60.902  0.00  0.00    +0.000 A 
ATOM     16  C   UNL     1      36.811  53.974  61.415  0.00  0.00    +0.000 A 
ATOM     17  C   UNL     1      35.495  53.731  61.093  0.00  0.00    +0.000 A 
ATOM     18  C   UNL     1      34.761  54.586  60.277  0.00  0.00    +0.000 A 
BRANCH  16  19
ATOM     19  O   UNL     1      37.533  53.092  62.244  0.00  0.00    +0.000 OA
ATOM     20  C   UNL     1      38.500  52.230  61.715  0.00  0.00    +0.000 C 
ENDBRANCH  16  19
BRANCH  17  21
ATOM     21  O   UNL     1      34.927  52.572  61.631  0.00  0.00    +0.000 OA
ATOM     22  C   UNL     1      34.895  51.412  60.837  0.00  0.00    +0.000 C 
ENDBRANCH  17  21
ENDBRANCH   2  13
TORSDOF 6
ENDMDL
MODEL 10
REMARK VINA RESULT:      -5.7     11.966     13.409
REMARK  Name = 
REMARK  6 active torsions:
REMARK  status: ('A' for Active; 'I' for Inactive)
REMARK    1  A    between atoms: O_2  and  C_3
REMARK    2  A    between atoms: C_5  and  C_6
REMARK    3  A    between atoms: C_7  and  C_8
REMARK    4  A    between atoms: C_11  and  O_12
REMARK    5  A    between atoms: C_14  and  O_15
REMARK    6  A    between atoms: C_19  and  O_20
REMARK                            x       y       z     vdW  Elec       q    Type
REMARK                         _______ _______ _______ _____ _____    ______ ____
ROOT
ATOM      1  C   UNL     1      30.854  44.794  61.706  0.00  0.00    +0.000 C 
ATOM      2  C   UNL     1      30.688  45.932  62.320  0.00  0.00    +0.000 C 
ENDROOT
BRANCH   1   5
ATOM      3  C   UNL     1      33.333  43.220  59.402  0.00  0.00    +0.000 A 
ATOM      4  C   UNL     1      32.187  43.731  59.976  0.00  0.00    +0.000 A 
ATOM      5  C   UNL     1      32.138  44.295  61.231  0.00  0.00    +0.000 A 
ATOM      6  C   UNL     1      33.289  44.363  61.969  0.00  0.00    +0.000 A 
ATOM      7  C   UNL     1      34.475  43.855  61.424  0.00  0.00    +0.000 A 
ATOM      8  C   UNL     1      34.480  43.297  60.163  0.00  0.00    +0.000 A 
BRANCH   3  10
ATOM      9  C   UNL     1      34.313  43.121  57.206  0.00  0.00    +0.000 C 
ATOM     10  O   UNL     1      33.337  42.653  58.119  0.00  0.00    +0.000 OA
ENDBRANCH   3  10
BRANCH   7  11
ATOM     11  O   UNL     1      35.659  43.905  62.141  0.00  0.00    +0.000 OA
ATOM     12  C   UNL     1      35.615  43.951  63.544  0.00  0.00    +0.000 C 
ENDBRANCH   7  11
ENDBRANCH   1   5
BRANCH   2  13
ATOM     13  C   UNL     1      29.365  46.400  62.786  0.00  0.00    +0.000 A 
ATOM     14  C   UNL     1      28.796  45.794  63.887  0.00  0.00    +0.000 A 
ATOM     15  C   UNL     1      27.567  46.173  64.381  0.00  0.00    +0.000 A 
ATOM     16  C   UNL     1      26.868  47.189  63.770  0.00  0.00    +0.000 A 
ATOM     17  C   UNL     1      27.437  47.792  62.672  0.00  0.00    +0.000 A 
ATOM     18  C   UNL     1      28.678  47.407  62.173  0.00  0.00    +0.000 A 
BRANCH  16  19
ATOM     19  O   UNL     1      25.609  47.597  64.255  0.00  0.00    +0.000 OA
ATOM     20  C   UNL     1      25.499  48.557  65.267  0.00  0.00    +0.000 C 
ENDBRANCH  16  19
BRANCH  17  21
ATOM     21  O   UNL     1      26.699  48.820  62.074  0.00  0.00    +0.000 OA
ATOM     22  C   UNL     1      27.069  49.248  60.787  0.00  0.00    +0.000 C 
ENDBRANCH  17  21
ENDBRANCH   2  13
TORSDOF 6
ENDMDL
