REMARK  Name = 
REMARK  4 active torsions:
REMARK  status: ('A' for Active; 'I' for Inactive)
REMARK    1  A    between atoms: O_2  and  C_3
REMARK    2  A    between atoms: C_5  and  C_6
REMARK    3  A    between atoms: C_7  and  C_8
REMARK    4  A    between atoms: C_16  and  O_17
REMARK                            x       y       z     vdW  Elec       q    Type
REMARK                         _______ _______ _______ _____ _____    ______ ____
ROOT
ATOM      1  C   UNL     1      -3.441   0.178   1.090  0.00  0.00    +0.000 A 
ATOM      2  C   UNL     1      -2.069   0.330   1.204  0.00  0.00    +0.000 A 
ATOM      3  C   UNL     1      -1.190  -0.138   0.267  0.00  0.00    +0.000 A 
ATOM      4  C   UNL     1      -1.661  -0.792  -0.847  0.00  0.00    +0.000 A 
ATOM      5  C   UNL     1      -3.030  -0.967  -1.002  0.00  0.00    +0.000 A 
ATOM      6  C   UNL     1      -3.889  -0.486  -0.045  0.00  0.00    +0.000 A 
ENDROOT
BRANCH   1   8
ATOM      7  C   UNL     1      -5.677   0.561   2.032  0.00  0.00    +0.000 C 
ATOM      8  O   UNL     1      -4.285   0.673   2.072  0.00  0.00    +0.000 OA
ENDBRANCH   1   8
BRANCH   3   9
ATOM      9  C   UNL     1       0.236   0.061   0.458  0.00  0.00    +0.000 C 
ATOM     10  C   UNL     1       1.131  -0.371  -0.416  0.00  0.00    +0.000 C 
BRANCH  10  11
ATOM     11  C   UNL     1       2.544  -0.144  -0.174  0.00  0.00    +0.000 A 
ATOM     12  C   UNL     1       3.444  -0.606  -1.102  0.00  0.00    +0.000 A 
ATOM     13  C   UNL     1       4.800  -0.423  -0.932  0.00  0.00    +0.000 A 
ATOM     14  C   UNL     1       5.235   0.233   0.190  0.00  0.00    +0.000 A 
ATOM     15  O   UNL     1       6.606   0.425   0.376  0.00  0.00    +0.000 OA
ATOM     16  C   UNL     1       4.374   0.715   1.150  0.00  0.00    +0.000 A 
ATOM     17  C   UNL     1       3.008   0.511   0.942  0.00  0.00    +0.000 A 
ENDBRANCH  10  11
ENDBRANCH   3   9
BRANCH   5  18
ATOM     18  O   UNL     1      -3.478  -1.627  -2.130  0.00  0.00    +0.000 OA
ATOM     19  C   UNL     1      -2.657  -2.135  -3.132  0.00  0.00    +0.000 C 
ENDBRANCH   5  18
TORSDOF 4
