MODEL 1
REMARK VINA RESULT:      -6.6      0.000      0.000
REMARK  Name = 
REMARK  4 active torsions:
REMARK  status: ('A' for Active; 'I' for Inactive)
REMARK    1  A    between atoms: O_2  and  C_3
REMARK    2  A    between atoms: C_6  and  C_7
REMARK    3  A    between atoms: C_8  and  C_9
REMARK    4  A    between atoms: C_11  and  O_12
REMARK                            x       y       z     vdW  Elec       q    Type
REMARK                         _______ _______ _______ _____ _____    ______ ____
ROOT
ATOM      1  C   UNL     1      36.190  56.490  56.770  0.00  0.00    +0.000 C 
ATOM      2  C   UNL     1      35.755  56.379  57.991  0.00  0.00    +0.000 C 
ENDROOT
BRANCH   2   3
ATOM      3  C   UNL     1      36.034  55.275  58.889  0.00  0.00    +0.000 A 
ATOM      4  C   UNL     1      37.307  54.716  58.816  0.00  0.00    +0.000 A 
ATOM      5  C   UNL     1      37.646  53.667  59.634  0.00  0.00    +0.000 A 
ATOM      6  C   UNL     1      36.717  53.182  60.518  0.00  0.00    +0.000 A 
ATOM      7  C   UNL     1      35.440  53.721  60.612  0.00  0.00    +0.000 A 
ATOM      8  C   UNL     1      35.126  54.771  59.782  0.00  0.00    +0.000 A 
ATOM      9  O   UNL     1      34.729  53.014  61.601  0.00  0.00    +0.000 OA
ATOM     10  C   UNL     1      35.528  51.901  61.941  0.00  0.00    +0.000 C 
ATOM     11  O   UNL     1      36.807  52.156  61.433  0.00  0.00    +0.000 OA
BRANCH   5  12
ATOM     12  O   UNL     1      38.911  53.122  59.553  0.00  0.00    +0.000 OA
ATOM     13  C   UNL     1      39.443  52.529  58.407  0.00  0.00    +0.000 C 
ENDBRANCH   5  12
ENDBRANCH   2   3
BRANCH   1  17
ATOM     14  C   UNL     1      35.298  59.782  54.240  0.00  0.00    +0.000 A 
ATOM     15  C   UNL     1      34.526  59.552  55.343  0.00  0.00    +0.000 A 
ATOM     16  C   UNL     1      34.825  58.476  56.161  0.00  0.00    +0.000 A 
ATOM     17  C   UNL     1      35.880  57.630  55.897  0.00  0.00    +0.000 A 
ATOM     18  C   UNL     1      36.645  57.880  54.780  0.00  0.00    +0.000 A 
ATOM     19  C   UNL     1      36.359  58.957  53.946  0.00  0.00    +0.000 A 
ATOM     20  N   UNL     1      37.170  59.187  52.801  0.00  0.00    +0.000 NA
BRANCH  14  22
ATOM     21  C   UNL     1      35.237  62.187  53.826  0.00  0.00    +0.000 C 
ATOM     22  O   UNL     1      35.017  60.844  53.417  0.00  0.00    +0.000 OA
ENDBRANCH  14  22
ENDBRANCH   1  17
TORSDOF 4
ENDMDL
MODEL 2
REMARK VINA RESULT:      -6.5      1.916      2.223
REMARK  Name = 
REMARK  4 active torsions:
REMARK  status: ('A' for Active; 'I' for Inactive)
REMARK    1  A    between atoms: O_2  and  C_3
REMARK    2  A    between atoms: C_6  and  C_7
REMARK    3  A    between atoms: C_8  and  C_9
REMARK    4  A    between atoms: C_11  and  O_12
REMARK                            x       y       z     vdW  Elec       q    Type
REMARK                         _______ _______ _______ _____ _____    ______ ____
ROOT
ATOM      1  C   UNL     1      36.476  56.414  57.260  0.00  0.00    +0.000 C 
ATOM      2  C   UNL     1      35.997  55.339  57.814  0.00  0.00    +0.000 C 
ENDROOT
BRANCH   2   3
ATOM      3  C   UNL     1      36.777  54.312  58.478  0.00  0.00    +0.000 A 
ATOM      4  C   UNL     1      38.007  54.702  59.001  0.00  0.00    +0.000 A 
ATOM      5  C   UNL     1      38.803  53.786  59.643  0.00  0.00    +0.000 A 
ATOM      6  C   UNL     1      38.369  52.490  59.759  0.00  0.00    +0.000 A 
ATOM      7  C   UNL     1      37.147  52.075  59.246  0.00  0.00    +0.000 A 
ATOM      8  C   UNL     1      36.369  53.011  58.608  0.00  0.00    +0.000 A 
ATOM      9  O   UNL     1      36.989  50.702  59.523  0.00  0.00    +0.000 OA
ATOM     10  C   UNL     1      38.235  50.255  60.014  0.00  0.00    +0.000 C 
ATOM     11  O   UNL     1      38.969  51.399  60.349  0.00  0.00    +0.000 OA
BRANCH   5  12
ATOM     12  O   UNL     1      40.019  54.184  60.159  0.00  0.00    +0.000 OA
ATOM     13  C   UNL     1      40.242  54.499  61.500  0.00  0.00    +0.000 C 
ENDBRANCH   5  12
ENDBRANCH   2   3
BRANCH   1  17
ATOM     14  C   UNL     1      34.075  59.343  55.339  0.00  0.00    +0.000 A 
ATOM     15  C   UNL     1      33.869  59.064  56.659  0.00  0.00    +0.000 A 
ATOM     16  C   UNL     1      34.657  58.108  57.276  0.00  0.00    +0.000 A 
ATOM     17  C   UNL     1      35.645  57.428  56.597  0.00  0.00    +0.000 A 
ATOM     18  C   UNL     1      35.836  57.725  55.267  0.00  0.00    +0.000 A 
ATOM     19  C   UNL     1      35.053  58.684  54.630  0.00  0.00    +0.000 A 
ATOM     20  N   UNL     1      35.278  58.967  53.255  0.00  0.00    +0.000 NA
BRANCH  14  22
ATOM     21  C   UNL     1      31.923  60.443  55.000  0.00  0.00    +0.000 C 
ATOM     22  O   UNL     1      33.304  60.289  54.710  0.00  0.00    +0.000 OA
ENDBRANCH  14  22
ENDBRANCH   1  17
TORSDOF 4
ENDMDL
MODEL 3
REMARK VINA RESULT:      -6.4     12.924     13.829
REMARK  Name = 
REMARK  4 active torsions:
REMARK  status: ('A' for Active; 'I' for Inactive)
REMARK    1  A    between atoms: O_2  and  C_3
REMARK    2  A    between atoms: C_6  and  C_7
REMARK    3  A    between atoms: C_8  and  C_9
REMARK    4  A    between atoms: C_11  and  O_12
REMARK                            x       y       z     vdW  Elec       q    Type
REMARK                         _______ _______ _______ _____ _____    ______ ____
ROOT
ATOM      1  C   UNL     1      30.814  45.908  62.382  0.00  0.00    +0.000 C 
ATOM      2  C   UNL     1      31.004  44.820  61.696  0.00  0.00    +0.000 C 
ENDROOT
BRANCH   2   3
ATOM      3  C   UNL     1      32.293  44.268  61.327  0.00  0.00    +0.000 A 
ATOM      4  C   UNL     1      32.420  43.792  60.026  0.00  0.00    +0.000 A 
ATOM      5  C   UNL     1      33.611  43.254  59.603  0.00  0.00    +0.000 A 
ATOM      6  C   UNL     1      34.665  43.195  60.478  0.00  0.00    +0.000 A 
ATOM      7  C   UNL     1      34.565  43.663  61.782  0.00  0.00    +0.000 A 
ATOM      8  C   UNL     1      33.363  44.197  62.181  0.00  0.00    +0.000 A 
ATOM      9  O   UNL     1      35.803  43.464  62.424  0.00  0.00    +0.000 OA
ATOM     10  C   UNL     1      36.576  42.668  61.550  0.00  0.00    +0.000 C 
ATOM     11  O   UNL     1      35.943  42.712  60.302  0.00  0.00    +0.000 OA
BRANCH   5  12
ATOM     12  O   UNL     1      33.725  42.786  58.309  0.00  0.00    +0.000 OA
ATOM     13  C   UNL     1      34.418  43.442  57.291  0.00  0.00    +0.000 C 
ENDBRANCH   5  12
ENDBRANCH   2   3
BRANCH   1  17
ATOM     14  C   UNL     1      26.973  47.417  63.386  0.00  0.00    +0.000 A 
ATOM     15  C   UNL     1      27.505  46.392  64.113  0.00  0.00    +0.000 A 
ATOM     16  C   UNL     1      28.757  45.907  63.779  0.00  0.00    +0.000 A 
ATOM     17  C   UNL     1      29.485  46.429  62.732  0.00  0.00    +0.000 A 
ATOM     18  C   UNL     1      28.931  47.463  62.011  0.00  0.00    +0.000 A 
ATOM     19  C   UNL     1      27.672  47.963  62.334  0.00  0.00    +0.000 A 
ATOM     20  N   UNL     1      27.129  49.032  61.569  0.00  0.00    +0.000 NA
BRANCH  14  22
ATOM     21  C   UNL     1      25.414  48.347  65.017  0.00  0.00    +0.000 C 
ATOM     22  O   UNL     1      25.733  47.912  63.704  0.00  0.00    +0.000 OA
ENDBRANCH  14  22
ENDBRANCH   1  17
TORSDOF 4
ENDMDL
MODEL 4
REMARK VINA RESULT:      -6.4      1.858      2.924
REMARK  Name = 
REMARK  4 active torsions:
REMARK  status: ('A' for Active; 'I' for Inactive)
REMARK    1  A    between atoms: O_2  and  C_3
REMARK    2  A    between atoms: C_6  and  C_7
REMARK    3  A    between atoms: C_8  and  C_9
REMARK    4  A    between atoms: C_11  and  O_12
REMARK                            x       y       z     vdW  Elec       q    Type
REMARK                         _______ _______ _______ _____ _____    ______ ____
ROOT
ATOM      1  C   UNL     1      36.398  56.365  57.148  0.00  0.00    +0.000 C 
ATOM      2  C   UNL     1      35.977  55.441  57.962  0.00  0.00    +0.000 C 
ENDROOT
BRANCH   2   3
ATOM      3  C   UNL     1      36.767  54.331  58.461  0.00  0.00    +0.000 A 
ATOM      4  C   UNL     1      36.094  53.132  58.675  0.00  0.00    +0.000 A 
ATOM      5  C   UNL     1      36.773  52.036  59.147  0.00  0.00    +0.000 A 
ATOM      6  C   UNL     1      38.116  52.143  59.402  0.00  0.00    +0.000 A 
ATOM      7  C   UNL     1      38.812  53.328  59.197  0.00  0.00    +0.000 A 
ATOM      8  C   UNL     1      38.109  54.410  58.724  0.00  0.00    +0.000 A 
ATOM      9  O   UNL     1      40.161  53.119  59.547  0.00  0.00    +0.000 OA
ATOM     10  C   UNL     1      40.214  51.855  60.174  0.00  0.00    +0.000 C 
ATOM     11  O   UNL     1      39.012  51.207  59.871  0.00  0.00    +0.000 OA
BRANCH   5  12
ATOM     12  O   UNL     1      36.095  50.853  59.355  0.00  0.00    +0.000 OA
ATOM     13  C   UNL     1      34.758  50.767  59.743  0.00  0.00    +0.000 C 
ENDBRANCH   5  12
ENDBRANCH   2   3
BRANCH   1  17
ATOM     14  C   UNL     1      33.976  59.563  55.757  0.00  0.00    +0.000 A 
ATOM     15  C   UNL     1      33.819  59.106  57.034  0.00  0.00    +0.000 A 
ATOM     16  C   UNL     1      34.614  58.063  57.478  0.00  0.00    +0.000 A 
ATOM     17  C   UNL     1      35.559  57.471  56.669  0.00  0.00    +0.000 A 
ATOM     18  C   UNL     1      35.701  57.947  55.385  0.00  0.00    +0.000 A 
ATOM     19  C   UNL     1      34.910  58.996  54.922  0.00  0.00    +0.000 A 
ATOM     20  N   UNL     1      35.083  59.464  53.590  0.00  0.00    +0.000 NA
BRANCH  14  22
ATOM     21  C   UNL     1      31.824  60.419  54.986  0.00  0.00    +0.000 C 
ATOM     22  O   UNL     1      33.197  60.597  55.299  0.00  0.00    +0.000 OA
ENDBRANCH  14  22
ENDBRANCH   1  17
TORSDOF 4
ENDMDL
MODEL 5
REMARK VINA RESULT:      -6.3     12.517     13.680
REMARK  Name = 
REMARK  4 active torsions:
REMARK  status: ('A' for Active; 'I' for Inactive)
REMARK    1  A    between atoms: O_2  and  C_3
REMARK    2  A    between atoms: C_6  and  C_7
REMARK    3  A    between atoms: C_8  and  C_9
REMARK    4  A    between atoms: C_11  and  O_12
REMARK                            x       y       z     vdW  Elec       q    Type
REMARK                         _______ _______ _______ _____ _____    ______ ____
ROOT
ATOM      1  C   UNL     1      30.936  46.027  62.360  0.00  0.00    +0.000 C 
ATOM      2  C   UNL     1      31.165  44.917  61.720  0.00  0.00    +0.000 C 
ENDROOT
BRANCH   2   3
ATOM      3  C   UNL     1      32.473  44.410  61.351  0.00  0.00    +0.000 A 
ATOM      4  C   UNL     1      33.525  44.712  62.211  0.00  0.00    +0.000 A 
ATOM      5  C   UNL     1      34.793  44.266  61.929  0.00  0.00    +0.000 A 
ATOM      6  C   UNL     1      35.003  43.525  60.795  0.00  0.00    +0.000 A 
ATOM      7  C   UNL     1      33.971  43.210  59.920  0.00  0.00    +0.000 A 
ATOM      8  C   UNL     1      32.711  43.667  60.225  0.00  0.00    +0.000 A 
ATOM      9  O   UNL     1      34.500  42.446  58.861  0.00  0.00    +0.000 OA
ATOM     10  C   UNL     1      35.904  42.499  59.002  0.00  0.00    +0.000 C 
ATOM     11  O   UNL     1      36.161  42.969  60.295  0.00  0.00    +0.000 OA
BRANCH   5  12
ATOM     12  O   UNL     1      35.828  44.571  62.789  0.00  0.00    +0.000 OA
ATOM     13  C   UNL     1      35.958  45.782  63.470  0.00  0.00    +0.000 C 
ENDBRANCH   5  12
ENDBRANCH   2   3
BRANCH   1  17
ATOM     14  C   UNL     1      27.047  47.401  63.370  0.00  0.00    +0.000 A 
ATOM     15  C   UNL     1      27.629  46.418  64.118  0.00  0.00    +0.000 A 
ATOM     16  C   UNL     1      28.897  45.977  63.781  0.00  0.00    +0.000 A 
ATOM     17  C   UNL     1      29.591  46.501  62.711  0.00  0.00    +0.000 A 
ATOM     18  C   UNL     1      28.986  47.491  61.971  0.00  0.00    +0.000 A 
ATOM     19  C   UNL     1      27.711  47.946  62.296  0.00  0.00    +0.000 A 
ATOM     20  N   UNL     1      27.115  48.971  61.510  0.00  0.00    +0.000 NA
BRANCH  14  22
ATOM     21  C   UNL     1      25.457  48.269  65.006  0.00  0.00    +0.000 C 
ATOM     22  O   UNL     1      25.791  47.851  63.690  0.00  0.00    +0.000 OA
ENDBRANCH  14  22
ENDBRANCH   1  17
TORSDOF 4
ENDMDL
MODEL 6
REMARK VINA RESULT:      -6.2      3.094      8.708
REMARK  Name = 
REMARK  4 active torsions:
REMARK  status: ('A' for Active; 'I' for Inactive)
REMARK    1  A    between atoms: O_2  and  C_3
REMARK    2  A    between atoms: C_6  and  C_7
REMARK    3  A    between atoms: C_8  and  C_9
REMARK    4  A    between atoms: C_11  and  O_12
REMARK                            x       y       z     vdW  Elec       q    Type
REMARK                         _______ _______ _______ _____ _____    ______ ____
ROOT
ATOM      1  C   UNL     1      35.674  55.970  59.007  0.00  0.00    +0.000 C 
ATOM      2  C   UNL     1      36.325  56.260  57.919  0.00  0.00    +0.000 C 
ENDROOT
BRANCH   2   3
ATOM      3  C   UNL     1      35.865  57.155  56.874  0.00  0.00    +0.000 A 
ATOM      4  C   UNL     1      34.790  57.982  57.187  0.00  0.00    +0.000 A 
ATOM      5  C   UNL     1      34.297  58.856  56.250  0.00  0.00    +0.000 A 
ATOM      6  C   UNL     1      34.878  58.900  55.009  0.00  0.00    +0.000 A 
ATOM      7  C   UNL     1      35.951  58.085  54.670  0.00  0.00    +0.000 A 
ATOM      8  C   UNL     1      36.426  57.220  55.626  0.00  0.00    +0.000 A 
ATOM      9  O   UNL     1      36.319  58.363  53.338  0.00  0.00    +0.000 OA
ATOM     10  C   UNL     1      35.306  59.197  52.816  0.00  0.00    +0.000 C 
ATOM     11  O   UNL     1      34.577  59.675  53.910  0.00  0.00    +0.000 OA
BRANCH   5  12
ATOM     12  O   UNL     1      33.232  59.671  56.573  0.00  0.00    +0.000 OA
ATOM     13  C   UNL     1      33.353  60.986  57.023  0.00  0.00    +0.000 C 
ENDBRANCH   5  12
ENDBRANCH   2   3
BRANCH   1  17
ATOM     14  C   UNL     1      37.136  53.323  61.989  0.00  0.00    +0.000 A 
ATOM     15  C   UNL     1      37.960  54.286  61.481  0.00  0.00    +0.000 A 
ATOM     16  C   UNL     1      37.474  55.144  60.509  0.00  0.00    +0.000 A 
ATOM     17  C   UNL     1      36.182  55.056  60.039  0.00  0.00    +0.000 A 
ATOM     18  C   UNL     1      35.368  54.078  60.565  0.00  0.00    +0.000 A 
ATOM     19  C   UNL     1      35.840  53.207  61.543  0.00  0.00    +0.000 A 
ATOM     20  N   UNL     1      34.972  52.209  62.065  0.00  0.00    +0.000 NA
BRANCH  14  22
ATOM     21  C   UNL     1      38.571  52.865  63.910  0.00  0.00    +0.000 C 
ATOM     22  O   UNL     1      37.600  52.464  62.954  0.00  0.00    +0.000 OA
ENDBRANCH  14  22
ENDBRANCH   1  17
TORSDOF 4
ENDMDL
MODEL 7
REMARK VINA RESULT:      -6.2      2.697      8.771
REMARK  Name = 
REMARK  4 active torsions:
REMARK  status: ('A' for Active; 'I' for Inactive)
REMARK    1  A    between atoms: O_2  and  C_3
REMARK    2  A    between atoms: C_6  and  C_7
REMARK    3  A    between atoms: C_8  and  C_9
REMARK    4  A    between atoms: C_11  and  O_12
REMARK                            x       y       z     vdW  Elec       q    Type
REMARK                         _______ _______ _______ _____ _____    ______ ____
ROOT
ATOM      1  C   UNL     1      35.819  56.747  58.088  0.00  0.00    +0.000 C 
ATOM      2  C   UNL     1      36.191  57.074  56.885  0.00  0.00    +0.000 C 
ENDROOT
BRANCH   2   3
ATOM      3  C   UNL     1      35.931  58.346  56.238  0.00  0.00    +0.000 A 
ATOM      4  C   UNL     1      34.663  58.523  55.693  0.00  0.00    +0.000 A 
ATOM      5  C   UNL     1      34.342  59.701  55.064  0.00  0.00    +0.000 A 
ATOM      6  C   UNL     1      35.286  60.692  54.982  0.00  0.00    +0.000 A 
ATOM      7  C   UNL     1      36.559  60.541  55.516  0.00  0.00    +0.000 A 
ATOM      8  C   UNL     1      36.855  59.353  56.141  0.00  0.00    +0.000 A 
ATOM      9  O   UNL     1      37.289  61.722  55.272  0.00  0.00    +0.000 OA
ATOM     10  C   UNL     1      36.503  62.494  54.389  0.00  0.00    +0.000 C 
ATOM     11  O   UNL     1      35.216  61.945  54.412  0.00  0.00    +0.000 OA
BRANCH   5  12
ATOM     12  O   UNL     1      33.081  59.865  54.528  0.00  0.00    +0.000 OA
ATOM     13  C   UNL     1      32.041  60.551  55.156  0.00  0.00    +0.000 C 
ENDBRANCH   5  12
ENDBRANCH   2   3
BRANCH   1  17
ATOM     14  C   UNL     1      36.639  52.978  59.865  0.00  0.00    +0.000 A 
ATOM     15  C   UNL     1      37.536  53.519  58.990  0.00  0.00    +0.000 A 
ATOM     16  C   UNL     1      37.260  54.748  58.416  0.00  0.00    +0.000 A 
ATOM     17  C   UNL     1      36.105  55.443  58.701  0.00  0.00    +0.000 A 
ATOM     18  C   UNL     1      35.214  54.880  59.586  0.00  0.00    +0.000 A 
ATOM     19  C   UNL     1      35.475  53.645  60.173  0.00  0.00    +0.000 A 
ATOM     20  N   UNL     1      34.534  53.091  61.084  0.00  0.00    +0.000 NA
BRANCH  14  22
ATOM     21  C   UNL     1      37.688  50.775  59.797  0.00  0.00    +0.000 C 
ATOM     22  O   UNL     1      36.897  51.761  60.444  0.00  0.00    +0.000 OA
ENDBRANCH  14  22
ENDBRANCH   1  17
TORSDOF 4
ENDMDL
MODEL 8
REMARK VINA RESULT:      -6.2      3.000      8.138
REMARK  Name = 
REMARK  4 active torsions:
REMARK  status: ('A' for Active; 'I' for Inactive)
REMARK    1  A    between atoms: O_2  and  C_3
REMARK    2  A    between atoms: C_6  and  C_7
REMARK    3  A    between atoms: C_8  and  C_9
REMARK    4  A    between atoms: C_11  and  O_12
REMARK                            x       y       z     vdW  Elec       q    Type
REMARK                         _______ _______ _______ _____ _____    ______ ____
ROOT
ATOM      1  C   UNL     1      36.547  55.659  58.030  0.00  0.00    +0.000 C 
ATOM      2  C   UNL     1      36.283  56.930  58.116  0.00  0.00    +0.000 C 
ENDROOT
BRANCH   2   3
ATOM      3  C   UNL     1      35.502  57.696  57.164  0.00  0.00    +0.000 A 
ATOM      4  C   UNL     1      35.972  57.730  55.854  0.00  0.00    +0.000 A 
ATOM      5  C   UNL     1      35.287  58.435  54.895  0.00  0.00    +0.000 A 
ATOM      6  C   UNL     1      34.142  59.101  55.248  0.00  0.00    +0.000 A 
ATOM      7  C   UNL     1      33.652  59.085  56.547  0.00  0.00    +0.000 A 
ATOM      8  C   UNL     1      34.355  58.371  57.488  0.00  0.00    +0.000 A 
ATOM      9  O   UNL     1      32.473  59.855  56.589  0.00  0.00    +0.000 OA
ATOM     10  C   UNL     1      32.388  60.513  55.343  0.00  0.00    +0.000 C 
ATOM     11  O   UNL     1      33.286  59.867  54.486  0.00  0.00    +0.000 OA
BRANCH   5  12
ATOM     12  O   UNL     1      35.762  58.460  53.600  0.00  0.00    +0.000 OA
ATOM     13  C   UNL     1      36.915  59.132  53.195  0.00  0.00    +0.000 C 
ENDBRANCH   5  12
ENDBRANCH   2   3
BRANCH   1  17
ATOM     14  C   UNL     1      38.855  53.532  60.891  0.00  0.00    +0.000 A 
ATOM     15  C   UNL     1      38.114  54.607  61.288  0.00  0.00    +0.000 A 
ATOM     16  C   UNL     1      37.365  55.294  60.349  0.00  0.00    +0.000 A 
ATOM     17  C   UNL     1      37.344  54.925  59.021  0.00  0.00    +0.000 A 
ATOM     18  C   UNL     1      38.098  53.837  58.641  0.00  0.00    +0.000 A 
ATOM     19  C   UNL     1      38.857  53.135  59.573  0.00  0.00    +0.000 A 
ATOM     20  N   UNL     1      39.624  52.016  59.147  0.00  0.00    +0.000 NA
BRANCH  14  22
ATOM     21  C   UNL     1      40.839  53.337  62.298  0.00  0.00    +0.000 C 
ATOM     22  O   UNL     1      39.603  52.838  61.809  0.00  0.00    +0.000 OA
ENDBRANCH  14  22
ENDBRANCH   1  17
TORSDOF 4
ENDMDL
MODEL 9
REMARK VINA RESULT:      -6.1      3.181      8.385
REMARK  Name = 
REMARK  4 active torsions:
REMARK  status: ('A' for Active; 'I' for Inactive)
REMARK    1  A    between atoms: O_2  and  C_3
REMARK    2  A    between atoms: C_6  and  C_7
REMARK    3  A    between atoms: C_8  and  C_9
REMARK    4  A    between atoms: C_11  and  O_12
REMARK                            x       y       z     vdW  Elec       q    Type
REMARK                         _______ _______ _______ _____ _____    ______ ____
ROOT
ATOM      1  C   UNL     1      36.814  54.982  58.579  0.00  0.00    +0.000 C 
ATOM      2  C   UNL     1      36.071  55.572  57.689  0.00  0.00    +0.000 C 
ENDROOT
BRANCH   2   3
ATOM      3  C   UNL     1      36.306  56.892  57.135  0.00  0.00    +0.000 A 
ATOM      4  C   UNL     1      36.303  56.996  55.747  0.00  0.00    +0.000 A 
ATOM      5  C   UNL     1      36.519  58.213  55.148  0.00  0.00    +0.000 A 
ATOM      6  C   UNL     1      36.735  59.315  55.935  0.00  0.00    +0.000 A 
ATOM      7  C   UNL     1      36.743  59.238  57.322  0.00  0.00    +0.000 A 
ATOM      8  C   UNL     1      36.525  58.009  57.897  0.00  0.00    +0.000 A 
ATOM      9  O   UNL     1      36.989  60.526  57.838  0.00  0.00    +0.000 OA
ATOM     10  C   UNL     1      37.349  61.330  56.735  0.00  0.00    +0.000 C 
ATOM     11  O   UNL     1      36.971  60.627  55.585  0.00  0.00    +0.000 OA
BRANCH   5  12
ATOM     12  O   UNL     1      36.512  58.304  53.771  0.00  0.00    +0.000 OA
ATOM     13  C   UNL     1      35.452  58.810  53.019  0.00  0.00    +0.000 C 
ENDBRANCH   5  12
ENDBRANCH   2   3
BRANCH   1  17
ATOM     14  C   UNL     1      36.016  51.105  60.118  0.00  0.00    +0.000 A 
ATOM     15  C   UNL     1      35.035  52.054  60.143  0.00  0.00    +0.000 A 
ATOM     16  C   UNL     1      35.305  53.315  59.640  0.00  0.00    +0.000 A 
ATOM     17  C   UNL     1      36.535  53.641  59.112  0.00  0.00    +0.000 A 
ATOM     18  C   UNL     1      37.510  52.669  59.096  0.00  0.00    +0.000 A 
ATOM     19  C   UNL     1      37.257  51.396  59.599  0.00  0.00    +0.000 A 
ATOM     20  N   UNL     1      38.286  50.415  59.567  0.00  0.00    +0.000 NA
BRANCH  14  22
ATOM     21  C   UNL     1      34.732  49.607  61.555  0.00  0.00    +0.000 C 
ATOM     22  O   UNL     1      35.767  49.849  60.613  0.00  0.00    +0.000 OA
ENDBRANCH  14  22
ENDBRANCH   1  17
TORSDOF 4
ENDMDL
MODEL 10
REMARK VINA RESULT:      -6.1      2.363      3.707
REMARK  Name = 
REMARK  4 active torsions:
REMARK  status: ('A' for Active; 'I' for Inactive)
REMARK    1  A    between atoms: O_2  and  C_3
REMARK    2  A    between atoms: C_6  and  C_7
REMARK    3  A    between atoms: C_8  and  C_9
REMARK    4  A    between atoms: C_11  and  O_12
REMARK                            x       y       z     vdW  Elec       q    Type
REMARK                         _______ _______ _______ _____ _____    ______ ____
ROOT
ATOM      1  C   UNL     1      36.619  55.418  57.835  0.00  0.00    +0.000 C 
ATOM      2  C   UNL     1      35.969  54.387  58.291  0.00  0.00    +0.000 C 
ENDROOT
BRANCH   2   3
ATOM      3  C   UNL     1      36.567  53.158  58.774  0.00  0.00    +0.000 A 
ATOM      4  C   UNL     1      35.697  52.192  59.271  0.00  0.00    +0.000 A 
ATOM      5  C   UNL     1      36.188  51.002  59.747  0.00  0.00    +0.000 A 
ATOM      6  C   UNL     1      37.542  50.782  59.724  0.00  0.00    +0.000 A 
ATOM      7  C   UNL     1      38.432  51.729  59.234  0.00  0.00    +0.000 A 
ATOM      8  C   UNL     1      37.915  52.912  58.764  0.00  0.00    +0.000 A 
ATOM      9  O   UNL     1      39.739  51.212  59.346  0.00  0.00    +0.000 OA
ATOM     10  C   UNL     1      39.631  50.032  60.114  0.00  0.00    +0.000 C 
ATOM     11  O   UNL     1      38.274  49.690  60.135  0.00  0.00    +0.000 OA
BRANCH   5  12
ATOM     12  O   UNL     1      35.315  50.051  60.236  0.00  0.00    +0.000 OA
ATOM     13  C   UNL     1      34.876  49.990  61.558  0.00  0.00    +0.000 C 
ENDBRANCH   5  12
ENDBRANCH   2   3
BRANCH   1  17
ATOM     14  C   UNL     1      34.732  58.964  56.456  0.00  0.00    +0.000 A 
ATOM     15  C   UNL     1      35.580  58.286  55.628  0.00  0.00    +0.000 A 
ATOM     16  C   UNL     1      36.190  57.132  56.086  0.00  0.00    +0.000 A 
ATOM     17  C   UNL     1      35.967  56.644  57.356  0.00  0.00    +0.000 A 
ATOM     18  C   UNL     1      35.109  57.342  58.175  0.00  0.00    +0.000 A 
ATOM     19  C   UNL     1      34.487  58.506  57.731  0.00  0.00    +0.000 A 
ATOM     20  N   UNL     1      33.606  59.202  58.602  0.00  0.00    +0.000 NA
BRANCH  14  22
ATOM     21  C   UNL     1      33.279  60.120  54.873  0.00  0.00    +0.000 C 
ATOM     22  O   UNL     1      34.118  60.111  56.019  0.00  0.00    +0.000 OA
ENDBRANCH  14  22
ENDBRANCH   1  17
TORSDOF 4
ENDMDL
