REMARK  Name = 
REMARK  2 active torsions:
REMARK  status: ('A' for Active; 'I' for Inactive)
REMARK    1  A    between atoms: C_7  and  C_8
REMARK    2  A    between atoms: C_9  and  C_10
REMARK                            x       y       z     vdW  Elec       q    Type
REMARK                         _______ _______ _______ _____ _____    ______ ____
ROOT
ATOM      1  C   UNL     1      -0.543  -0.009   0.411  0.00  0.00    +0.000 C 
ATOM      2  C   UNL     1       0.289  -0.048  -0.641  0.00  0.00    +0.000 C 
ENDROOT
BRANCH   1   9
ATOM      3  O   UNL     1      -4.722   0.992  -2.072  0.00  0.00    +0.000 OA
ATOM      4  C   UNL     1      -4.073   0.513  -0.936  0.00  0.00    +0.000 A 
ATOM      5  C   UNL     1      -4.830   0.047   0.143  0.00  0.00    +0.000 A 
ATOM      6  C   UNL     1      -4.196  -0.424   1.296  0.00  0.00    +0.000 A 
ATOM      7  O   UNL     1      -4.966  -0.877   2.365  0.00  0.00    +0.000 OA
ATOM      8  C   UNL     1      -2.797  -0.436   1.368  0.00  0.00    +0.000 A 
ATOM      9  C   UNL     1      -2.021   0.011   0.285  0.00  0.00    +0.000 A 
ATOM     10  C   UNL     1      -2.673   0.500  -0.865  0.00  0.00    +0.000 A 
ENDBRANCH   1   9
BRANCH   2  11
ATOM     11  C   UNL     1       1.766  -0.089  -0.515  0.00  0.00    +0.000 A 
ATOM     12  C   UNL     1       2.519  -0.611  -1.576  0.00  0.00    +0.000 A 
ATOM     13  C   UNL     1       3.912  -0.658  -1.501  0.00  0.00    +0.000 A 
ATOM     14  C   UNL     1       4.584  -0.176  -0.374  0.00  0.00    +0.000 A 
ATOM     15  O   UNL     1       5.978  -0.258  -0.359  0.00  0.00    +0.000 OA
ATOM     16  C   UNL     1       3.839   0.374   0.695  0.00  0.00    +0.000 A 
ATOM     17  O   UNL     1       4.440   0.892   1.845  0.00  0.00    +0.000 OA
ATOM     18  C   UNL     1       2.441   0.415   0.614  0.00  0.00    +0.000 A 
ENDBRANCH   2  11
TORSDOF 2
