REMARK  Name = 
REMARK  4 active torsions:
REMARK  status: ('A' for Active; 'I' for Inactive)
REMARK    1  A    between atoms: O_2  and  C_3
REMARK    2  A    between atoms: C_5  and  C_6
REMARK    3  A    between atoms: C_7  and  C_8
REMARK    4  A    between atoms: C_16  and  O_17
REMARK                            x       y       z     vdW  Elec       q    Type
REMARK                         _______ _______ _______ _____ _____    ______ ____
ROOT
ATOM      1  C   UNL     1      -2.826  -0.189  -0.163  0.00  0.00    +0.000 A 
ATOM      2  C   UNL     1      -1.955  -0.727  -1.129  0.00  0.00    +0.000 A 
ATOM      3  C   UNL     1      -0.682  -0.173  -1.325  0.00  0.00    +0.000 A 
ATOM      4  C   UNL     1      -0.301   0.959  -0.585  0.00  0.00    +0.000 A 
ATOM      5  C   UNL     1      -1.155   1.503   0.379  0.00  0.00    +0.000 A 
ATOM      6  C   UNL     1      -2.418   0.918   0.589  0.00  0.00    +0.000 A 
ENDROOT
BRANCH   1   8
ATOM      7  C   UNL     1      -4.647  -1.846  -0.606  0.00  0.00    +0.000 C 
ATOM      8  O   UNL     1      -4.101  -0.723   0.079  0.00  0.00    +0.000 OA
ENDBRANCH   1   8
BRANCH   3   9
ATOM      9  C   UNL     1       0.202  -0.749  -2.363  0.00  0.00    +0.000 C 
ATOM     10  C   UNL     1       1.525  -0.944  -2.234  0.00  0.00    +0.000 C 
BRANCH  10  11
ATOM     11  C   UNL     1       2.296  -0.776  -0.983  0.00  0.00    +0.000 A 
ATOM     12  C   UNL     1       3.567  -0.185  -1.038  0.00  0.00    +0.000 A 
ATOM     13  C   UNL     1       4.328  -0.035   0.126  0.00  0.00    +0.000 A 
ATOM     14  C   UNL     1       3.833  -0.493   1.355  0.00  0.00    +0.000 A 
ATOM     15  O   UNL     1       4.580  -0.347   2.521  0.00  0.00    +0.000 OA
ATOM     16  C   UNL     1       2.579  -1.110   1.410  0.00  0.00    +0.000 A 
ATOM     17  C   UNL     1       1.817  -1.262   0.248  0.00  0.00    +0.000 A 
ENDBRANCH  10  11
ENDBRANCH   3   9
BRANCH   5  18
ATOM     18  O   UNL     1      -0.715   2.622   1.102  0.00  0.00    +0.000 OA
ATOM     19  C   UNL     1      -1.474   3.276   2.114  0.00  0.00    +0.000 C 
ENDBRANCH   5  18
TORSDOF 4
