REMARK  Name = 
REMARK  2 active torsions:
REMARK  status: ('A' for Active; 'I' for Inactive)
REMARK    1  A    between atoms: C_6  and  C_7
REMARK    2  A    between atoms: C_8  and  C_9
REMARK                            x       y       z     vdW  Elec       q    Type
REMARK                         _______ _______ _______ _____ _____    ______ ____
ROOT
ATOM      1  C   UNL     1       0.467   0.264   0.574  0.00  0.00    +0.000 C 
ATOM      2  C   UNL     1      -0.136  -0.241  -0.514  0.00  0.00    +0.000 C 
ENDROOT
BRANCH   2   3
ATOM      3  C   UNL     1      -1.610  -0.312  -0.678  0.00  0.00    +0.000 A 
ATOM      4  C   UNL     1      -2.136  -0.400  -1.978  0.00  0.00    +0.000 A 
ATOM      5  C   UNL     1      -3.517  -0.477  -2.186  0.00  0.00    +0.000 A 
ATOM      6  O   UNL     1      -4.013  -0.553  -3.486  0.00  0.00    +0.000 OA
ATOM      7  C   UNL     1      -4.388  -0.478  -1.089  0.00  0.00    +0.000 A 
ATOM      8  C   UNL     1      -3.881  -0.411   0.211  0.00  0.00    +0.000 A 
ATOM      9  O   UNL     1      -4.760  -0.428   1.291  0.00  0.00    +0.000 OA
ATOM     10  C   UNL     1      -2.496  -0.332   0.418  0.00  0.00    +0.000 A 
ENDBRANCH   2   3
BRANCH   1  16
ATOM     11  O   UNL     1       4.342   0.611   3.546  0.00  0.00    +0.000 OA
ATOM     12  C   UNL     1       3.847   0.518   2.248  0.00  0.00    +0.000 A 
ATOM     13  C   UNL     1       4.718   0.505   1.152  0.00  0.00    +0.000 A 
ATOM     14  C   UNL     1       4.209   0.419  -0.145  0.00  0.00    +0.000 A 
ATOM     15  C   UNL     1       2.829   0.339  -0.355  0.00  0.00    +0.000 A 
ATOM     16  C   UNL     1       1.940   0.335   0.740  0.00  0.00    +0.000 A 
ATOM     17  C   UNL     1       2.466   0.439   2.039  0.00  0.00    +0.000 A 
ENDBRANCH   1  16
TORSDOF 2
