REMARK  Name = 
REMARK  2 active torsions:
REMARK  status: ('A' for Active; 'I' for Inactive)
REMARK    1  A    between atoms: C_7  and  C_8
REMARK    2  A    between atoms: C_9  and  C_10
REMARK                            x       y       z     vdW  Elec       q    Type
REMARK                         _______ _______ _______ _____ _____    ______ ____
ROOT
ATOM      1  C   UNL     1      -0.388   0.197   0.232  0.00  0.00    +0.000 C 
ATOM      2  C   UNL     1       0.477  -0.544  -0.476  0.00  0.00    +0.000 C 
ENDROOT
BRANCH   1   9
ATOM      3  O   UNL     1      -4.546  -2.053  -1.245  0.00  0.00    +0.000 OA
ATOM      4  C   UNL     1      -3.914  -0.953  -0.668  0.00  0.00    +0.000 A 
ATOM      5  C   UNL     1      -4.661   0.144  -0.223  0.00  0.00    +0.000 A 
ATOM      6  C   UNL     1      -4.021   1.236   0.367  0.00  0.00    +0.000 A 
ATOM      7  O   UNL     1      -4.778   2.318   0.812  0.00  0.00    +0.000 OA
ATOM      8  C   UNL     1      -2.626   1.236   0.508  0.00  0.00    +0.000 A 
ATOM      9  C   UNL     1      -1.861   0.149   0.051  0.00  0.00    +0.000 A 
ATOM     10  C   UNL     1      -2.522  -0.953  -0.528  0.00  0.00    +0.000 A 
ENDBRANCH   1   9
BRANCH   2  11
ATOM     11  C   UNL     1       1.941  -0.484  -0.262  0.00  0.00    +0.000 A 
ATOM     12  C   UNL     1       2.667  -1.685  -0.299  0.00  0.00    +0.000 A 
ATOM     13  C   UNL     1       4.051  -1.686  -0.103  0.00  0.00    +0.000 A 
ATOM     14  C   UNL     1       4.730  -0.486   0.119  0.00  0.00    +0.000 A 
ATOM     15  O   UNL     1       6.109  -0.503   0.319  0.00  0.00    +0.000 OA
ATOM     16  C   UNL     1       4.021   0.722   0.132  0.00  0.00    +0.000 A 
ATOM     17  C   UNL     1       2.633   0.734  -0.072  0.00  0.00    +0.000 A 
ATOM     18  O   UNL     1       1.954   1.952  -0.115  0.00  0.00    +0.000 OA
ENDBRANCH   2  11
TORSDOF 2
