REMARK  Name = 
REMARK  2 active torsions:
REMARK  status: ('A' for Active; 'I' for Inactive)
REMARK    1  A    between atoms: C_5  and  C_6
REMARK    2  A    between atoms: C_7  and  C_8
REMARK                            x       y       z     vdW  Elec       q    Type
REMARK                         _______ _______ _______ _____ _____    ______ ____
ROOT
ATOM      1  C   UNL     1       0.154   1.279  -1.820  0.00  0.00    +0.000 C 
ATOM      2  C   UNL     1      -1.166   1.235  -1.578  0.00  0.00    +0.000 C 
ENDROOT
BRANCH   1   7
ATOM      3  O   UNL     1       4.272  -1.042   1.334  0.00  0.00    +0.000 OA
ATOM      4  C   UNL     1       3.254  -0.468   0.577  0.00  0.00    +0.000 A 
ATOM      5  C   UNL     1       3.307  -0.541  -0.819  0.00  0.00    +0.000 A 
ATOM      6  C   UNL     1       2.291   0.029  -1.592  0.00  0.00    +0.000 A 
ATOM      7  C   UNL     1       1.200   0.660  -0.976  0.00  0.00    +0.000 A 
ATOM      8  C   UNL     1       1.166   0.757   0.427  0.00  0.00    +0.000 A 
ATOM      9  C   UNL     1       2.183   0.186   1.198  0.00  0.00    +0.000 A 
ENDBRANCH   1   7
BRANCH   2  10
ATOM     10  C   UNL     1      -1.818   0.421  -0.529  0.00  0.00    +0.000 A 
ATOM     11  C   UNL     1      -2.888   0.969   0.196  0.00  0.00    +0.000 A 
ATOM     12  C   UNL     1      -3.539   0.211   1.175  0.00  0.00    +0.000 A 
ATOM     13  C   UNL     1      -3.140  -1.104   1.423  0.00  0.00    +0.000 A 
ATOM     14  C   UNL     1      -2.096  -1.669   0.686  0.00  0.00    +0.000 A 
ATOM     15  C   UNL     1      -1.442  -0.915  -0.294  0.00  0.00    +0.000 A 
ENDBRANCH   2  10
TORSDOF 2
