REMARK  Name = 
REMARK  4 active torsions:
REMARK  status: ('A' for Active; 'I' for Inactive)
REMARK    1  A    between atoms: O_2  and  C_3
REMARK    2  A    between atoms: C_5  and  C_6
REMARK    3  A    between atoms: C_7  and  C_8
REMARK    4  A    between atoms: C_16  and  O_17
REMARK                            x       y       z     vdW  Elec       q    Type
REMARK                         _______ _______ _______ _____ _____    ______ ____
ROOT
ATOM      1  C   UNL     1      -3.039  -0.472  -0.300  0.00  0.00    +0.000 A 
ATOM      2  C   UNL     1      -1.635  -0.522  -0.386  0.00  0.00    +0.000 A 
ATOM      3  C   UNL     1      -0.849   0.541   0.101  0.00  0.00    +0.000 A 
ATOM      4  C   UNL     1      -1.489   1.665   0.645  0.00  0.00    +0.000 A 
ATOM      5  C   UNL     1      -2.882   1.729   0.736  0.00  0.00    +0.000 A 
ATOM      6  C   UNL     1      -3.653   0.651   0.265  0.00  0.00    +0.000 A 
ENDROOT
BRANCH   1   8
ATOM      7  C   UNL     1      -3.380  -2.713  -1.360  0.00  0.00    +0.000 C 
ATOM      8  O   UNL     1      -3.859  -1.511  -0.766  0.00  0.00    +0.000 OA
ENDBRANCH   1   8
BRANCH   3   9
ATOM      9  C   UNL     1       0.633   0.537   0.023  0.00  0.00    +0.000 C 
ATOM     10  C   UNL     1       1.371  -0.583  -0.027  0.00  0.00    +0.000 C 
BRANCH  10  11
ATOM     11  C   UNL     1       2.853  -0.591  -0.104  0.00  0.00    +0.000 A 
ATOM     12  C   UNL     1       3.493  -1.740  -0.599  0.00  0.00    +0.000 A 
ATOM     13  C   UNL     1       4.887  -1.798  -0.683  0.00  0.00    +0.000 A 
ATOM     14  C   UNL     1       5.663  -0.714  -0.263  0.00  0.00    +0.000 A 
ATOM     15  O   UNL     1       7.051  -0.785  -0.352  0.00  0.00    +0.000 OA
ATOM     16  C   UNL     1       5.037   0.430   0.247  0.00  0.00    +0.000 A 
ATOM     17  C   UNL     1       3.643   0.493   0.332  0.00  0.00    +0.000 A 
ENDBRANCH  10  11
ENDBRANCH   3   9
BRANCH   5  18
ATOM     18  O   UNL     1      -3.460   2.876   1.301  0.00  0.00    +0.000 OA
ATOM     19  C   UNL     1      -4.861   3.077   1.458  0.00  0.00    +0.000 C 
ENDBRANCH   5  18
TORSDOF 4
