REMARK  Name = 
REMARK  2 active torsions:
REMARK  status: ('A' for Active; 'I' for Inactive)
REMARK    1  A    between atoms: C_7  and  C_8
REMARK    2  A    between atoms: C_9  and  C_10
REMARK                            x       y       z     vdW  Elec       q    Type
REMARK                         _______ _______ _______ _____ _____    ______ ____
ROOT
ATOM      1  C   UNL     1      -0.812  -1.819  -1.481  0.00  0.00    +0.000 C 
ATOM      2  C   UNL     1       0.528  -1.879  -1.541  0.00  0.00    +0.000 C 
ENDROOT
BRANCH   1   9
ATOM      3  O   UNL     1      -4.637  -0.493   1.304  0.00  0.00    +0.000 OA
ATOM      4  C   UNL     1      -3.509  -0.140   0.567  0.00  0.00    +0.000 A 
ATOM      5  C   UNL     1      -3.144   1.206   0.466  0.00  0.00    +0.000 A 
ATOM      6  C   UNL     1      -2.020   1.578  -0.282  0.00  0.00    +0.000 A 
ATOM      7  O   UNL     1      -1.658   2.917  -0.401  0.00  0.00    +0.000 OA
ATOM      8  C   UNL     1      -1.253   0.597  -0.919  0.00  0.00    +0.000 A 
ATOM      9  C   UNL     1      -1.592  -0.763  -0.798  0.00  0.00    +0.000 A 
ATOM     10  C   UNL     1      -2.738  -1.121  -0.072  0.00  0.00    +0.000 A 
ENDBRANCH   1   9
BRANCH   2  11
ATOM     11  C   UNL     1       1.458  -1.001  -0.795  0.00  0.00    +0.000 A 
ATOM     12  C   UNL     1       2.612  -0.529  -1.435  0.00  0.00    +0.000 A 
ATOM     13  C   UNL     1       3.518   0.283  -0.749  0.00  0.00    +0.000 A 
ATOM     14  C   UNL     1       3.292   0.618   0.593  0.00  0.00    +0.000 A 
ATOM     15  O   UNL     1       4.195   1.433   1.274  0.00  0.00    +0.000 OA
ATOM     16  C   UNL     1       2.153   0.124   1.251  0.00  0.00    +0.000 A 
ATOM     17  O   UNL     1       1.905   0.427   2.590  0.00  0.00    +0.000 OA
ATOM     18  C   UNL     1       1.248  -0.690   0.560  0.00  0.00    +0.000 A 
ENDBRANCH   2  11
TORSDOF 2
