REMARK  Name = 
REMARK  2 active torsions:
REMARK  status: ('A' for Active; 'I' for Inactive)
REMARK    1  A    between atoms: C_5  and  C_6
REMARK    2  A    between atoms: C_7  and  C_8
REMARK                            x       y       z     vdW  Elec       q    Type
REMARK                         _______ _______ _______ _____ _____    ______ ____
ROOT
ATOM      1  C   UNL     1       0.795  -1.772   1.471  0.00  0.00    +0.000 C 
ATOM      2  C   UNL     1      -0.539  -1.879   1.362  0.00  0.00    +0.000 C 
ENDROOT
BRANCH   2   3
ATOM      3  C   UNL     1      -1.399  -1.028   0.510  0.00  0.00    +0.000 A 
ATOM      4  C   UNL     1      -2.642  -0.603   1.003  0.00  0.00    +0.000 A 
ATOM      5  C   UNL     1      -3.487   0.183   0.213  0.00  0.00    +0.000 A 
ATOM      6  O   UNL     1      -4.709   0.609   0.728  0.00  0.00    +0.000 OA
ATOM      7  C   UNL     1      -3.100   0.533  -1.087  0.00  0.00    +0.000 A 
ATOM      8  C   UNL     1      -1.875   0.089  -1.600  0.00  0.00    +0.000 A 
ATOM      9  O   UNL     1      -1.487   0.418  -2.897  0.00  0.00    +0.000 OA
ATOM     10  C   UNL     1      -1.033  -0.698  -0.807  0.00  0.00    +0.000 A 
ENDBRANCH   2   3
BRANCH   1  15
ATOM     11  O   UNL     1       4.043   2.373  -0.669  0.00  0.00    +0.000 OA
ATOM     12  C   UNL     1       3.248   1.356  -0.145  0.00  0.00    +0.000 A 
ATOM     13  C   UNL     1       3.665   0.019  -0.206  0.00  0.00    +0.000 A 
ATOM     14  C   UNL     1       2.858  -0.993   0.322  0.00  0.00    +0.000 A 
ATOM     15  C   UNL     1       1.616  -0.683   0.897  0.00  0.00    +0.000 A 
ATOM     16  C   UNL     1       1.217   0.663   0.982  0.00  0.00    +0.000 A 
ATOM     17  C   UNL     1       2.025   1.674   0.453  0.00  0.00    +0.000 A 
ENDBRANCH   1  15
TORSDOF 2
