REMARK  Name = 
REMARK  4 active torsions:
REMARK  status: ('A' for Active; 'I' for Inactive)
REMARK    1  A    between atoms: S_2  and  O_5
REMARK    2  A    between atoms: O_5  and  C_6
REMARK    3  A    between atoms: C_11  and  C_12
REMARK    4  A    between atoms: C_13  and  C_14
REMARK                            x       y       z     vdW  Elec       q    Type
REMARK                         _______ _______ _______ _____ _____    ______ ____
ROOT
ATOM      1  C   UNL     1       3.474  -0.349  -0.566  0.00  0.00    +0.000 A 
ATOM      2  C   UNL     1       3.841  -1.359  -1.462  0.00  0.00    +0.000 A 
ATOM      3  C   UNL     1       2.878  -2.206  -2.014  0.00  0.00    +0.000 A 
ATOM      4  O   UNL     1       3.271  -3.209  -2.897  0.00  0.00    +0.000 OA
ATOM      5  C   UNL     1       1.529  -2.042  -1.677  0.00  0.00    +0.000 A 
ATOM      6  C   UNL     1       1.133  -1.024  -0.795  0.00  0.00    +0.000 A 
ATOM      7  C   UNL     1       2.116  -0.188  -0.229  0.00  0.00    +0.000 A 
ENDROOT
BRANCH   6   8
ATOM      8  C   UNL     1      -0.306  -0.894  -0.459  0.00  0.00    +0.000 C 
ATOM      9  C   UNL     1      -0.867   0.254  -0.047  0.00  0.00    +0.000 C 
BRANCH   9  10
ATOM     10  C   UNL     1      -2.309   0.391   0.271  0.00  0.00    +0.000 A 
ATOM     11  C   UNL     1      -2.891   1.669   0.226  0.00  0.00    +0.000 A 
ATOM     12  C   UNL     1      -4.244   1.846   0.530  0.00  0.00    +0.000 A 
ATOM     13  C   UNL     1      -5.032   0.751   0.894  0.00  0.00    +0.000 A 
ATOM     14  O   UNL     1      -6.379   0.941   1.194  0.00  0.00    +0.000 OA
ATOM     15  C   UNL     1      -4.459  -0.525   0.959  0.00  0.00    +0.000 A 
ATOM     16  C   UNL     1      -3.106  -0.706   0.655  0.00  0.00    +0.000 A 
ENDBRANCH   9  10
ENDBRANCH   6   8
BRANCH   1  17
ATOM     17  O   UNL     1       4.488   0.462  -0.037  0.00  0.00    +0.000 OA
BRANCH  17  19
ATOM     18  O   UNL     1       5.551   2.406   1.359  0.00  0.00    +0.000 OA
ATOM     19  S   UNL     1       4.233   1.750   1.060  0.00  0.00    +0.000 S 
ATOM     20  O   UNL     1       3.641   1.217   2.335  0.00  0.00    +0.000 OA
ATOM     21  O   UNL     1       3.191   2.877   0.374  0.00  0.00    +0.000 OA
ENDBRANCH  17  19
ENDBRANCH   1  17
TORSDOF 4
