REMARK  Name = 
REMARK  2 active torsions:
REMARK  status: ('A' for Active; 'I' for Inactive)
REMARK    1  A    between atoms: C_5  and  C_6
REMARK    2  A    between atoms: C_7  and  C_8
REMARK                            x       y       z     vdW  Elec       q    Type
REMARK                         _______ _______ _______ _____ _____    ______ ____
ROOT
ATOM      1  C   UNL     1      -0.139  -0.110   0.510  0.00  0.00    +0.000 C 
ATOM      2  C   UNL     1       0.653   0.142  -0.544  0.00  0.00    +0.000 C 
ENDROOT
BRANCH   1   7
ATOM      3  O   UNL     1      -5.814  -0.535   0.317  0.00  0.00    +0.000 OA
ATOM      4  C   UNL     1      -4.425  -0.432   0.360  0.00  0.00    +0.000 A 
ATOM      5  C   UNL     1      -3.769  -0.126   1.558  0.00  0.00    +0.000 A 
ATOM      6  C   UNL     1      -2.375  -0.025   1.590  0.00  0.00    +0.000 A 
ATOM      7  C   UNL     1      -1.617  -0.218   0.422  0.00  0.00    +0.000 A 
ATOM      8  C   UNL     1      -2.286  -0.542  -0.776  0.00  0.00    +0.000 A 
ATOM      9  C   UNL     1      -3.680  -0.642  -0.803  0.00  0.00    +0.000 A 
ENDBRANCH   1   7
BRANCH   2  10
ATOM     10  C   UNL     1       2.131   0.249  -0.456  0.00  0.00    +0.000 A 
ATOM     11  C   UNL     1       2.889   0.058  -1.625  0.00  0.00    +0.000 A 
ATOM     12  C   UNL     1       4.283   0.159  -1.593  0.00  0.00    +0.000 A 
ATOM     13  C   UNL     1       4.936   0.463  -0.396  0.00  0.00    +0.000 A 
ATOM     14  C   UNL     1       4.195   0.672   0.769  0.00  0.00    +0.000 A 
ATOM     15  C   UNL     1       2.800   0.572   0.743  0.00  0.00    +0.000 A 
ENDBRANCH   2  10
TORSDOF 2
