REMARK  Name = 
REMARK  4 active torsions:
REMARK  status: ('A' for Active; 'I' for Inactive)
REMARK    1  A    between atoms: S_2  and  O_5
REMARK    2  A    between atoms: O_5  and  C_6
REMARK    3  A    between atoms: C_11  and  C_12
REMARK    4  A    between atoms: C_13  and  C_14
REMARK                            x       y       z     vdW  Elec       q    Type
REMARK                         _______ _______ _______ _____ _____    ______ ____
ROOT
ATOM      1  C   UNL     1       2.672  -0.757  -0.668  0.00  0.00    +0.000 A 
ATOM      2  C   UNL     1       1.954  -1.563  -1.558  0.00  0.00    +0.000 A 
ATOM      3  C   UNL     1       0.642  -1.955  -1.265  0.00  0.00    +0.000 A 
ATOM      4  O   UNL     1      -0.069  -2.769  -2.144  0.00  0.00    +0.000 OA
ATOM      5  C   UNL     1       0.038  -1.531  -0.078  0.00  0.00    +0.000 A 
ATOM      6  C   UNL     1       0.733  -0.697   0.814  0.00  0.00    +0.000 A 
ATOM      7  C   UNL     1       2.058  -0.334   0.527  0.00  0.00    +0.000 A 
ENDROOT
BRANCH   6   8
ATOM      8  C   UNL     1       0.125  -0.254   2.088  0.00  0.00    +0.000 C 
ATOM      9  C   UNL     1      -1.135   0.190   2.233  0.00  0.00    +0.000 C 
BRANCH   9  10
ATOM     10  C   UNL     1      -2.074   0.474   1.125  0.00  0.00    +0.000 A 
ATOM     11  C   UNL     1      -3.423   0.116   1.265  0.00  0.00    +0.000 A 
ATOM     12  C   UNL     1      -4.338   0.394   0.244  0.00  0.00    +0.000 A 
ATOM     13  C   UNL     1      -3.918   1.050  -0.918  0.00  0.00    +0.000 A 
ATOM     14  O   UNL     1      -4.839   1.318  -1.928  0.00  0.00    +0.000 OA
ATOM     15  C   UNL     1      -2.578   1.436  -1.052  0.00  0.00    +0.000 A 
ATOM     16  C   UNL     1      -1.662   1.160  -0.032  0.00  0.00    +0.000 A 
ENDBRANCH   9  10
ENDBRANCH   6   8
BRANCH   1  17
ATOM     17  O   UNL     1       3.985  -0.404  -1.010  0.00  0.00    +0.000 OA
BRANCH  17  19
ATOM     18  O   UNL     1       6.321   0.766  -0.764  0.00  0.00    +0.000 OA
ATOM     19  S   UNL     1       5.009   0.582  -0.056  0.00  0.00    +0.000 S 
ATOM     20  O   UNL     1       5.252  -0.081   1.270  0.00  0.00    +0.000 OA
ATOM     21  O   UNL     1       4.294   2.083   0.189  0.00  0.00    +0.000 OA
ENDBRANCH  17  19
ENDBRANCH   1  17
TORSDOF 4
