REMARK  Name = 
REMARK  2 active torsions:
REMARK  status: ('A' for Active; 'I' for Inactive)
REMARK    1  A    between atoms: C_5  and  C_6
REMARK    2  A    between atoms: C_7  and  C_8
REMARK                            x       y       z     vdW  Elec       q    Type
REMARK                         _______ _______ _______ _____ _____    ______ ____
ROOT
ATOM      1  C   UNL     1      -0.484   0.364  -0.422  0.00  0.00    +0.000 C 
ATOM      2  C   UNL     1       0.484  -0.364   0.157  0.00  0.00    +0.000 C 
ENDROOT
BRANCH   1   7
ATOM      3  O   UNL     1      -6.065  -0.681  -0.006  0.00  0.00    +0.000 OA
ATOM      4  C   UNL     1      -4.699  -0.429  -0.107  0.00  0.00    +0.000 A 
ATOM      5  C   UNL     1      -4.231   0.850  -0.430  0.00  0.00    +0.000 A 
ATOM      6  C   UNL     1      -2.857   1.091  -0.529  0.00  0.00    +0.000 A 
ATOM      7  C   UNL     1      -1.931   0.060  -0.295  0.00  0.00    +0.000 A 
ATOM      8  C   UNL     1      -2.413  -1.229   0.015  0.00  0.00    +0.000 A 
ATOM      9  C   UNL     1      -3.788  -1.465   0.112  0.00  0.00    +0.000 A 
ENDBRANCH   1   7
BRANCH   2  10
ATOM     10  C   UNL     1       1.931  -0.060   0.029  0.00  0.00    +0.000 A 
ATOM     11  C   UNL     1       2.857  -1.091   0.263  0.00  0.00    +0.000 A 
ATOM     12  C   UNL     1       4.231  -0.850   0.165  0.00  0.00    +0.000 A 
ATOM     13  C   UNL     1       4.699   0.429  -0.159  0.00  0.00    +0.000 A 
ATOM     14  O   UNL     1       6.065   0.681  -0.260  0.00  0.00    +0.000 OA
ATOM     15  C   UNL     1       3.788   1.465  -0.377  0.00  0.00    +0.000 A 
ATOM     16  C   UNL     1       2.413   1.229  -0.280  0.00  0.00    +0.000 A 
ENDBRANCH   2  10
TORSDOF 2
