REMARK  Name = 
REMARK  2 active torsions:
REMARK  status: ('A' for Active; 'I' for Inactive)
REMARK    1  A    between atoms: C_7  and  C_8
REMARK    2  A    between atoms: C_9  and  C_10
REMARK                            x       y       z     vdW  Elec       q    Type
REMARK                         _______ _______ _______ _____ _____    ______ ____
ROOT
ATOM      1  C   UNL     1      -0.603   0.281  -2.313  0.00  0.00    +0.000 C 
ATOM      2  C   UNL     1       0.692  -0.073  -2.347  0.00  0.00    +0.000 C 
ENDROOT
BRANCH   1   9
ATOM      3  O   UNL     1      -2.151  -1.617   1.988  0.00  0.00    +0.000 OA
ATOM      4  C   UNL     1      -2.211  -0.625   1.012  0.00  0.00    +0.000 A 
ATOM      5  C   UNL     1      -3.102   0.441   1.168  0.00  0.00    +0.000 A 
ATOM      6  C   UNL     1      -3.187   1.438   0.191  0.00  0.00    +0.000 A 
ATOM      7  O   UNL     1      -4.089   2.486   0.355  0.00  0.00    +0.000 OA
ATOM      8  C   UNL     1      -2.366   1.373  -0.944  0.00  0.00    +0.000 A 
ATOM      9  C   UNL     1      -1.445   0.326  -1.097  0.00  0.00    +0.000 A 
ATOM     10  C   UNL     1      -1.392  -0.689  -0.123  0.00  0.00    +0.000 A 
ENDBRANCH   1   9
BRANCH   2  11
ATOM     11  C   UNL     1       1.525  -0.355  -1.158  0.00  0.00    +0.000 A 
ATOM     12  C   UNL     1       2.260  -1.548  -1.118  0.00  0.00    +0.000 A 
ATOM     13  C   UNL     1       3.056  -1.852  -0.011  0.00  0.00    +0.000 A 
ATOM     14  C   UNL     1       3.141  -0.959   1.061  0.00  0.00    +0.000 A 
ATOM     15  O   UNL     1       3.934  -1.279   2.161  0.00  0.00    +0.000 OA
ATOM     16  C   UNL     1       2.434   0.249   1.016  0.00  0.00    +0.000 A 
ATOM     17  C   UNL     1       1.638   0.565  -0.094  0.00  0.00    +0.000 A 
ATOM     18  O   UNL     1       0.977   1.792  -0.149  0.00  0.00    +0.000 OA
ENDBRANCH   2  11
TORSDOF 2
