REMARK  Name = 
REMARK  2 active torsions:
REMARK  status: ('A' for Active; 'I' for Inactive)
REMARK    1  A    between atoms: C_5  and  C_6
REMARK    2  A    between atoms: C_7  and  C_8
REMARK                            x       y       z     vdW  Elec       q    Type
REMARK                         _______ _______ _______ _____ _____    ______ ____
ROOT
ATOM      1  C   UNL     1      -0.526  -1.851   1.199  0.00  0.00    +0.000 C 
ATOM      2  C   UNL     1       0.812  -1.825   1.087  0.00  0.00    +0.000 C 
ENDROOT
BRANCH   1   7
ATOM      3  O   UNL     1      -4.170   2.018  -0.817  0.00  0.00    +0.000 OA
ATOM      4  C   UNL     1      -3.278   1.068  -0.324  0.00  0.00    +0.000 A 
ATOM      5  C   UNL     1      -2.089   1.487   0.281  0.00  0.00    +0.000 A 
ATOM      6  C   UNL     1      -1.183   0.545   0.780  0.00  0.00    +0.000 A 
ATOM      7  C   UNL     1      -1.451  -0.831   0.657  0.00  0.00    +0.000 A 
ATOM      8  C   UNL     1      -2.659  -1.244   0.074  0.00  0.00    +0.000 A 
ATOM      9  C   UNL     1      -3.563  -0.300  -0.423  0.00  0.00    +0.000 A 
ENDBRANCH   1   7
BRANCH   2  10
ATOM     10  C   UNL     1       1.583  -0.871   0.259  0.00  0.00    +0.000 A 
ATOM     11  C   UNL     1       2.782  -0.344   0.762  0.00  0.00    +0.000 A 
ATOM     12  C   UNL     1       3.544   0.539  -0.009  0.00  0.00    +0.000 A 
ATOM     13  C   UNL     1       3.126   0.888  -1.300  0.00  0.00    +0.000 A 
ATOM     14  O   UNL     1       3.876   1.768  -2.077  0.00  0.00    +0.000 OA
ATOM     15  C   UNL     1       1.946   0.343  -1.818  0.00  0.00    +0.000 A 
ATOM     16  C   UNL     1       1.183  -0.541  -1.049  0.00  0.00    +0.000 A 
ENDBRANCH   2  10
TORSDOF 2
