REMARK  Name = 
REMARK  2 active torsions:
REMARK  status: ('A' for Active; 'I' for Inactive)
REMARK    1  A    between atoms: C_7  and  C_8
REMARK    2  A    between atoms: C_9  and  C_10
REMARK                            x       y       z     vdW  Elec       q    Type
REMARK                         _______ _______ _______ _____ _____    ______ ____
ROOT
ATOM      1  C   UNL     1      -0.118  -0.233   0.277  0.00  0.00    +0.000 C 
ATOM      2  C   UNL     1       0.800   0.256  -0.571  0.00  0.00    +0.000 C 
ENDROOT
BRANCH   1   9
ATOM      3  O   UNL     1      -4.051   2.140  -1.571  0.00  0.00    +0.000 OA
ATOM      4  C   UNL     1      -3.524   1.097  -0.812  0.00  0.00    +0.000 A 
ATOM      5  C   UNL     1      -4.371   0.173  -0.187  0.00  0.00    +0.000 A 
ATOM      6  C   UNL     1      -3.835  -0.861   0.584  0.00  0.00    +0.000 A 
ATOM      7  O   UNL     1      -4.690  -1.768   1.206  0.00  0.00    +0.000 OA
ATOM      8  C   UNL     1      -2.445  -0.979   0.725  0.00  0.00    +0.000 A 
ATOM      9  C   UNL     1      -1.581  -0.071   0.088  0.00  0.00    +0.000 A 
ATOM     10  C   UNL     1      -2.137   0.978  -0.672  0.00  0.00    +0.000 A 
ENDBRANCH   1   9
BRANCH   2  11
ATOM     11  C   UNL     1       2.263   0.095  -0.382  0.00  0.00    +0.000 A 
ATOM     12  C   UNL     1       2.820  -0.946   0.389  0.00  0.00    +0.000 A 
ATOM     13  C   UNL     1       4.208  -1.061   0.525  0.00  0.00    +0.000 A 
ATOM     14  C   UNL     1       5.054  -0.149  -0.111  0.00  0.00    +0.000 A 
ATOM     15 BR   UNL     1       6.948  -0.311   0.077  0.00  0.00    +0.000 Br
ATOM     16  C   UNL     1       4.513   0.875  -0.891  0.00  0.00    +0.000 A 
ATOM     17  C   UNL     1       3.127   0.994  -1.031  0.00  0.00    +0.000 A 
ENDBRANCH   2  11
TORSDOF 2
