REMARK  Name = 
REMARK  2 active torsions:
REMARK  status: ('A' for Active; 'I' for Inactive)
REMARK    1  A    between atoms: C_5  and  C_6
REMARK    2  A    between atoms: C_7  and  C_8
REMARK                            x       y       z     vdW  Elec       q    Type
REMARK                         _______ _______ _______ _____ _____    ______ ____
ROOT
ATOM      1  C   UNL     1      -0.303  -0.556  -0.043  0.00  0.00    +0.000 C 
ATOM      2  C   UNL     1       0.530   0.497  -0.057  0.00  0.00    +0.000 C 
ENDROOT
BRANCH   2   3
ATOM      3  C   UNL     1       2.009   0.376  -0.046  0.00  0.00    +0.000 A 
ATOM      4  C   UNL     1       2.774   1.453  -0.526  0.00  0.00    +0.000 A 
ATOM      5  C   UNL     1       4.174   1.389  -0.528  0.00  0.00    +0.000 A 
ATOM      6  O   UNL     1       4.932   2.453  -1.013  0.00  0.00    +0.000 OA
ATOM      7  C   UNL     1       4.819   0.251  -0.039  0.00  0.00    +0.000 A 
ATOM      8  C   UNL     1       4.072  -0.822   0.461  0.00  0.00    +0.000 A 
ATOM      9  O   UNL     1       4.708  -1.955   0.964  0.00  0.00    +0.000 OA
ATOM     10  C   UNL     1       2.674  -0.759   0.461  0.00  0.00    +0.000 A 
ENDBRANCH   2   3
BRANCH   1  15
ATOM     11  N   UNL     1      -6.028  -0.251  -0.063  0.00  0.00    +0.000 NA
ATOM     12  C   UNL     1      -4.599  -0.314  -0.063  0.00  0.00    +0.000 A 
ATOM     13  C   UNL     1      -3.846   0.763  -0.548  0.00  0.00    +0.000 A 
ATOM     14  C   UNL     1      -2.449   0.704  -0.549  0.00  0.00    +0.000 A 
ATOM     15  C   UNL     1      -1.782  -0.436  -0.054  0.00  0.00    +0.000 A 
ATOM     16  C   UNL     1      -2.547  -1.517   0.414  0.00  0.00    +0.000 A 
ATOM     17  C   UNL     1      -3.943  -1.455   0.415  0.00  0.00    +0.000 A 
ENDBRANCH   1  15
TORSDOF 2
