REMARK  Name = 
REMARK  2 active torsions:
REMARK  status: ('A' for Active; 'I' for Inactive)
REMARK    1  A    between atoms: C_7  and  C_8
REMARK    2  A    between atoms: C_9  and  C_10
REMARK                            x       y       z     vdW  Elec       q    Type
REMARK                         _______ _______ _______ _____ _____    ______ ____
ROOT
ATOM      1  O   UNL     1      -4.153   1.191  -2.286  0.00  0.00    +0.000 OA
ATOM      2  C   UNL     1      -3.564   0.762  -1.099  0.00  0.00    +0.000 A 
ATOM      3  C   UNL     1      -4.372   0.460   0.000  0.00  0.00    +0.000 A 
ATOM      4  C   UNL     1      -3.798   0.042   1.203  0.00  0.00    +0.000 A 
ATOM      5  O   UNL     1      -4.619  -0.246   2.292  0.00  0.00    +0.000 OA
ATOM      6  C   UNL     1      -2.406  -0.082   1.306  0.00  0.00    +0.000 A 
ATOM      7  C   UNL     1      -1.579   0.198   0.205  0.00  0.00    +0.000 A 
ATOM      8  C   UNL     1      -2.171   0.636  -0.998  0.00  0.00    +0.000 A 
ENDROOT
BRANCH   7   9
ATOM      9  C   UNL     1      -0.110   0.060   0.368  0.00  0.00    +0.000 C 
ATOM     10  C   UNL     1       0.737  -0.128  -0.656  0.00  0.00    +0.000 C 
BRANCH  10  11
ATOM     11  C   UNL     1       2.206  -0.266  -0.494  0.00  0.00    +0.000 A 
ATOM     12  C   UNL     1       3.032  -0.005  -1.601  0.00  0.00    +0.000 A 
ATOM     13  C   UNL     1       4.420  -0.132  -1.499  0.00  0.00    +0.000 A 
ATOM     14  C   UNL     1       5.000  -0.531  -0.293  0.00  0.00    +0.000 A 
ATOM     15  C   UNL     1       4.192  -0.810   0.810  0.00  0.00    +0.000 A 
ATOM     16  C   UNL     1       2.802  -0.684   0.715  0.00  0.00    +0.000 A 
ENDBRANCH  10  11
ENDBRANCH   7   9
TORSDOF 2
