REMARK  Name = 
REMARK  2 active torsions:
REMARK  status: ('A' for Active; 'I' for Inactive)
REMARK    1  A    between atoms: C_7  and  C_8
REMARK    2  A    between atoms: C_9  and  C_10
REMARK                            x       y       z     vdW  Elec       q    Type
REMARK                         _______ _______ _______ _____ _____    ______ ____
ROOT
ATOM      1  O   UNL     1      -4.534   0.449  -0.739  0.00  0.00    +0.000 OA
ATOM      2  C   UNL     1      -3.298   0.411  -0.097  0.00  0.00    +0.000 A 
ATOM      3  C   UNL     1      -3.093  -0.491   0.952  0.00  0.00    +0.000 A 
ATOM      4  C   UNL     1      -1.860  -0.532   1.615  0.00  0.00    +0.000 A 
ATOM      5  O   UNL     1      -1.652  -1.416   2.672  0.00  0.00    +0.000 OA
ATOM      6  C   UNL     1      -0.827   0.324   1.219  0.00  0.00    +0.000 A 
ATOM      7  C   UNL     1      -1.012   1.212   0.144  0.00  0.00    +0.000 A 
ATOM      8  C   UNL     1      -2.261   1.267  -0.493  0.00  0.00    +0.000 A 
ENDROOT
BRANCH   7   9
ATOM      9  C   UNL     1       0.054   2.147  -0.279  0.00  0.00    +0.000 C 
ATOM     10  C   UNL     1       1.354   1.835  -0.407  0.00  0.00    +0.000 C 
BRANCH  10  11
ATOM     11  C   UNL     1       1.920   0.471  -0.316  0.00  0.00    +0.000 A 
ATOM     12  C   UNL     1       3.142   0.281   0.349  0.00  0.00    +0.000 A 
ATOM     13  C   UNL     1       3.712  -0.993   0.427  0.00  0.00    +0.000 A 
ATOM     14  C   UNL     1       3.077  -2.083  -0.172  0.00  0.00    +0.000 A 
ATOM     15  C   UNL     1       1.875  -1.899  -0.861  0.00  0.00    +0.000 A 
ATOM     16  C   UNL     1       1.302  -0.627  -0.944  0.00  0.00    +0.000 A 
ENDBRANCH  10  11
ENDBRANCH   7   9
TORSDOF 2
