REMARK  Name = 
REMARK  3 active torsions:
REMARK  status: ('A' for Active; 'I' for Inactive)
REMARK    1  A    between atoms: O_2  and  C_3
REMARK    2  A    between atoms: C_8  and  C_9
REMARK    3  A    between atoms: C_10  and  C_11
REMARK                            x       y       z     vdW  Elec       q    Type
REMARK                         _______ _______ _______ _____ _____    ______ ____
ROOT
ATOM      1  C   UNL     1      -3.739   0.039  -0.395  0.00  0.00    +0.000 A 
ATOM      2  C   UNL     1      -4.071  -1.231   0.087  0.00  0.00    +0.000 A 
ATOM      3  C   UNL     1      -3.086  -2.075   0.606  0.00  0.00    +0.000 A 
ATOM      4  O   UNL     1      -3.446  -3.329   1.094  0.00  0.00    +0.000 OA
ATOM      5  C   UNL     1      -1.750  -1.653   0.638  0.00  0.00    +0.000 A 
ATOM      6  C   UNL     1      -1.390  -0.385   0.142  0.00  0.00    +0.000 A 
ATOM      7  C   UNL     1      -2.395   0.460  -0.360  0.00  0.00    +0.000 A 
ENDROOT
BRANCH   1   9
ATOM      8  C   UNL     1      -4.580   2.160  -1.419  0.00  0.00    +0.000 C 
ATOM      9  O   UNL     1      -4.768   0.849  -0.898  0.00  0.00    +0.000 OA
ENDBRANCH   1   9
BRANCH   6  10
ATOM     10  C   UNL     1       0.008   0.112   0.165  0.00  0.00    +0.000 C 
ATOM     11  C   UNL     1       1.083  -0.693   0.189  0.00  0.00    +0.000 C 
BRANCH  11  12
ATOM     12  C   UNL     1       2.482  -0.198   0.211  0.00  0.00    +0.000 A 
ATOM     13  C   UNL     1       2.843   1.081  -0.258  0.00  0.00    +0.000 A 
ATOM     14  C   UNL     1       4.179   1.496  -0.226  0.00  0.00    +0.000 A 
ATOM     15  C   UNL     1       5.171   0.638   0.265  0.00  0.00    +0.000 A 
ATOM     16  O   UNL     1       6.504   1.042   0.302  0.00  0.00    +0.000 OA
ATOM     17  C   UNL     1       4.823  -0.637   0.717  0.00  0.00    +0.000 A 
ATOM     18  C   UNL     1       3.489  -1.055   0.685  0.00  0.00    +0.000 A 
ENDBRANCH  11  12
ENDBRANCH   6  10
TORSDOF 3
