REMARK  Name = 
REMARK  3 active torsions:
REMARK  status: ('A' for Active; 'I' for Inactive)
REMARK    1  A    between atoms: O_2  and  C_3
REMARK    2  A    between atoms: C_6  and  C_7
REMARK    3  A    between atoms: C_8  and  C_9
REMARK                            x       y       z     vdW  Elec       q    Type
REMARK                         _______ _______ _______ _____ _____    ______ ____
ROOT
ATOM      1  C   UNL     1      -0.117   0.190  -0.327  0.00  0.00    +0.000 C 
ATOM      2  C   UNL     1      -0.986  -0.238   0.603  0.00  0.00    +0.000 C 
ENDROOT
BRANCH   2   3
ATOM      3  C   UNL     1      -2.456  -0.265   0.404  0.00  0.00    +0.000 A 
ATOM      4  C   UNL     1      -3.287  -0.270   1.537  0.00  0.00    +0.000 A 
ATOM      5  C   UNL     1      -4.679  -0.304   1.403  0.00  0.00    +0.000 A 
ATOM      6  O   UNL     1      -5.479  -0.297   2.543  0.00  0.00    +0.000 OA
ATOM      7  C   UNL     1      -5.255  -0.345   0.128  0.00  0.00    +0.000 A 
ATOM      8  C   UNL     1      -4.441  -0.360  -1.011  0.00  0.00    +0.000 A 
ATOM      9  O   UNL     1      -5.004  -0.416  -2.284  0.00  0.00    +0.000 OA
ATOM     10  C   UNL     1      -3.048  -0.324  -0.875  0.00  0.00    +0.000 A 
ENDBRANCH   2   3
BRANCH   1  14
ATOM     11  C   UNL     1       4.163   0.301   0.151  0.00  0.00    +0.000 A 
ATOM     12  C   UNL     1       3.575   0.269  -1.126  0.00  0.00    +0.000 A 
ATOM     13  C   UNL     1       2.184   0.234  -1.261  0.00  0.00    +0.000 A 
ATOM     14  C   UNL     1       1.354   0.217  -0.129  0.00  0.00    +0.000 A 
ATOM     15  C   UNL     1       1.947   0.266   1.148  0.00  0.00    +0.000 A 
ATOM     16  C   UNL     1       3.339   0.302   1.281  0.00  0.00    +0.000 A 
BRANCH  11  18
ATOM     17  C   UNL     1       6.507   0.341  -0.717  0.00  0.00    +0.000 C 
ATOM     18  O   UNL     1       5.553   0.337   0.339  0.00  0.00    +0.000 OA
ENDBRANCH  11  18
ENDBRANCH   1  14
TORSDOF 3
